Running on 10 processors
There are 1 iamges
Siesta Version:                                        tdap-2.2.3, based on siesta-3.2-pl-5
Architecture  : x86_64-unknown-linux-gnu--unknown
Compiler flags: mpif90 -g -O2 -ffree-line-length-none
PARALLEL version

* Running on   10 nodes in parallel
>> Start of run:   2-DEC-2020  20:45:48

                           ***********************       
                           *  WELCOME TO SIESTA  *       
                           ***********************       

reinit: Reading from standard input
************************** Dump of input data file ****************************
#DFT
XC.functional GGA
XC.authors  PBE
SCFMustConverge T
#MD
SolutionMethod      evolve
MD.TypeOfRun        verlet
MD.FinalTimeStep    500
TD.FinalTimeStep    500
MD.LengthTimeStep     0.00 fs
TD.LengthTimeStep   0.01 fs
MD.InitialTemperature  300 k
TD.DeltaElectricField T
%block ExternalElectricField
0.01 0.0 0.0 Ry/Bohr/e
%endblock ExternalElectricField
%block kgrid_Monkhorst_Pack
1 0 0 0.0
0 1 0 0.0
0 0 1 0.0
%endblock kgrid_Monkhorst_Pack
AtomicCoordinatesFormat  Fractional
LatticeConstant  1.0  Ang
NumberOfAtoms    3
NumberOfSpecies  2
%block LatticeVectors
       10.0        0.0000000000         0.0000000000
       0.0         10.0                 0.0000000000
       0.00        0.00                 10.0
%endblock LatticeVectors
%block ChemicalSpeciesLabel
   1    1    H
   2    8    O
%endblock ChemicalSpeciesLabel
%block AtomicCoordinatesAndAtomicSpecies
    0.44820475    0.41355314    0.41547532   1       1  H
    0.57091037    0.41168595    0.50808773   1       2  H
    0.47461484    0.41168595    0.50808773   2       3  O
%endblock AtomicCoordinatesAndAtomicSpecies
************************** End of input data file *****************************

reinit: -----------------------------------------------------------------------
reinit: System Name: 
reinit: -----------------------------------------------------------------------
reinit: System Label: siesta                                                      
reinit: -----------------------------------------------------------------------

initatom: Reading input for the pseudopotentials and atomic orbitals ----------
 Species number:            1  Label: H Atomic number:           1
 Species number:            2  Label: O Atomic number:           8
Ground state valence configuration:   1s01
Reading pseudopotential information in formatted form from H.psf

Valence configuration for pseudopotential generation:
1s( 1.00) rc: 1.25
2p( 0.00) rc: 1.25
3d( 0.00) rc: 1.25
4f( 0.00) rc: 1.25
Ground state valence configuration:   2s02  2p04
Reading pseudopotential information in formatted form from O.psf

Valence configuration for pseudopotential generation:
2s( 2.00) rc: 1.14
2p( 4.00) rc: 1.14
3d( 0.00) rc: 1.14
4f( 0.00) rc: 1.14
For H, standard SIESTA heuristics set lmxkb to 2
 (one more than the basis l, including polarization orbitals).
Use PS.lmax or PS.KBprojectors blocks to override.
For O, standard SIESTA heuristics set lmxkb to 3
 (one more than the basis l, including polarization orbitals).
Use PS.lmax or PS.KBprojectors blocks to override.

<basis_specs>
===============================================================================
H                    Z=   1    Mass=  1.0100        Charge= 0.17977+309
Lmxo=0 Lmxkb= 2    BasisType=split      Semic=F
L=0  Nsemic=0  Cnfigmx=1
          n=1  nzeta=2  polorb=1
            splnorm:   0.15000    
               vcte:    0.0000    
               rinn:    0.0000    
                rcs:    0.0000      0.0000    
            lambdas:    1.0000      1.0000    
-------------------------------------------------------------------------------
L=0  Nkbl=1  erefs: 0.17977+309
L=1  Nkbl=1  erefs: 0.17977+309
L=2  Nkbl=1  erefs: 0.17977+309
===============================================================================
</basis_specs>

atom: Called for H                     (Z =   1)

read_vps: Pseudopotential generation method:
read_vps: ATM3      Troullier-Martins                       
Total valence charge:    1.00000

xc_check: Exchange-correlation functional:
xc_check: GGA Perdew, Burke & Ernzerhof 1996
xc_check: WARNING: Pseudopotential generated with Ceperley-Alder functional
V l=0 = -2*Zval/r beyond r=  1.2343
V l=1 = -2*Zval/r beyond r=  1.2189
V l=2 = -2*Zval/r beyond r=  1.2189
All V_l potentials equal beyond r=  1.2343
This should be close to max(r_c) in ps generation
All pots = -2*Zval/r beyond r=  1.2343

VLOCAL1: 99.0% of the norm of Vloc inside     28.493 Ry
VLOCAL1: 99.9% of the norm of Vloc inside     64.935 Ry
atom: Maximum radius for 4*pi*r*r*local-pseudopot. charge    1.45251
atom: Maximum radius for r*vlocal+2*Zval:    1.21892
GHOST: No ghost state for L =  0
GHOST: No ghost state for L =  1
GHOST: No ghost state for L =  2

KBgen: Kleinman-Bylander projectors: 
   l= 0   rc=  1.364359   el= -0.488086   Ekb= -2.002077   kbcos= -0.347561
   l= 1   rc=  1.434438   el=  0.001075   Ekb= -0.501617   kbcos= -0.021754
   l= 2   rc=  1.470814   el=  0.002010   Ekb= -0.190607   kbcos= -0.002284

KBgen: Total number of  Kleinman-Bylander projectors:    9
atom: -------------------------------------------------------------------------

atom: SANKEY-TYPE ORBITALS:
atom: Selected multiple-zeta basis: split     

SPLIT: Orbitals with angular momentum L= 0

SPLIT: Basis orbitals for state 1s

SPLIT: PAO cut-off radius determined from an
SPLIT: energy shift=  0.020000 Ry

   izeta = 1
                 lambda =    1.000000
                     rc =    4.708991
                 energy =   -0.469191
                kinetic =    0.984891
    potential(screened) =   -1.454081
       potential(ionic) =   -1.971243

   izeta = 2
                 rmatch =    3.759707
              splitnorm =    0.150000
                 energy =   -0.351800
                kinetic =    1.584822
    potential(screened) =   -1.936622
       potential(ionic) =   -2.473950

POLgen: Perturbative polarization orbital with L=  1

POLgen: Polarization orbital for state 1s

   izeta = 1
                     rc =    4.708991
                 energy =    0.760113
                kinetic =    1.483507
    potential(screened) =   -0.723395
       potential(ionic) =   -1.207344
atom: Total number of Sankey-type orbitals:  5

atm_pop: Valence configuration (for local Pseudopot. screening):
 1s( 1.00)                                                            
Vna: chval, zval:    1.00000   1.00000

Vna:  Cut-off radius for the neutral-atom potential:   4.708991

atom: _________________________________________________________________________

<basis_specs>
===============================================================================
O                    Z=   8    Mass=  16.000        Charge= 0.17977+309
Lmxo=1 Lmxkb= 3    BasisType=split      Semic=F
L=0  Nsemic=0  Cnfigmx=2
          n=1  nzeta=2  polorb=0
            splnorm:   0.15000    
               vcte:    0.0000    
               rinn:    0.0000    
                rcs:    0.0000      0.0000    
            lambdas:    1.0000      1.0000    
L=1  Nsemic=0  Cnfigmx=2
          n=1  nzeta=2  polorb=1
            splnorm:   0.15000    
               vcte:    0.0000    
               rinn:    0.0000    
                rcs:    0.0000      0.0000    
            lambdas:    1.0000      1.0000    
-------------------------------------------------------------------------------
L=0  Nkbl=1  erefs: 0.17977+309
L=1  Nkbl=1  erefs: 0.17977+309
L=2  Nkbl=1  erefs: 0.17977+309
L=3  Nkbl=1  erefs: 0.17977+309
===============================================================================
</basis_specs>

atom: Called for O                     (Z =   8)

read_vps: Pseudopotential generation method:
read_vps: ATM3      Troullier-Martins                       
Total valence charge:    6.00000

xc_check: Exchange-correlation functional:
xc_check: GGA Perdew, Burke & Ernzerhof 1996
xc_check: WARNING: Pseudopotential generated with Ceperley-Alder functional
V l=0 = -2*Zval/r beyond r=  1.1278
V l=1 = -2*Zval/r beyond r=  1.1278
V l=2 = -2*Zval/r beyond r=  1.1278
V l=3 = -2*Zval/r beyond r=  1.1138
All V_l potentials equal beyond r=  1.1278
This should be close to max(r_c) in ps generation
All pots = -2*Zval/r beyond r=  1.1278

VLOCAL1: 99.0% of the norm of Vloc inside     34.126 Ry
VLOCAL1: 99.9% of the norm of Vloc inside     77.774 Ry
atom: Maximum radius for 4*pi*r*r*local-pseudopot. charge    1.37759
atom: Maximum radius for r*vlocal+2*Zval:    1.18566
GHOST: No ghost state for L =  0
GHOST: No ghost state for L =  1
GHOST: No ghost state for L =  2
GHOST: No ghost state for L =  3

KBgen: Kleinman-Bylander projectors: 
   l= 0   rc=  1.294105   el= -1.764717   Ekb=  9.120606   kbcos=  0.329038
   l= 1   rc=  1.294105   el= -0.698441   Ekb= -8.119783   kbcos= -0.400859
   l= 2   rc=  1.448233   el=  0.002031   Ekb= -2.039067   kbcos= -0.003490
   l= 3   rc=  1.561052   el=  0.003153   Ekb= -0.799361   kbcos= -0.000345

KBgen: Total number of  Kleinman-Bylander projectors:   16
atom: -------------------------------------------------------------------------

atom: SANKEY-TYPE ORBITALS:
atom: Selected multiple-zeta basis: split     

SPLIT: Orbitals with angular momentum L= 0

SPLIT: Basis orbitals for state 2s

SPLIT: PAO cut-off radius determined from an
SPLIT: energy shift=  0.020000 Ry

   izeta = 1
                 lambda =    1.000000
                     rc =    3.305093
                 energy =   -1.747165
                kinetic =    1.636523
    potential(screened) =   -3.383688
       potential(ionic) =  -11.346558

   izeta = 2
                 rmatch =    2.479194
              splitnorm =    0.150000
                 energy =   -1.484948
                kinetic =    2.492446
    potential(screened) =   -3.977393
       potential(ionic) =  -12.521955

SPLIT: Orbitals with angular momentum L= 1

SPLIT: Basis orbitals for state 2p

SPLIT: PAO cut-off radius determined from an
SPLIT: energy shift=  0.020000 Ry

   izeta = 1
                 lambda =    1.000000
                     rc =    3.840021
                 energy =   -0.679240
                kinetic =    5.142096
    potential(screened) =   -5.821336
       potential(ionic) =  -13.650628

   izeta = 2
                 rmatch =    2.479194
              splitnorm =    0.150000
                 energy =   -0.370047
                kinetic =    7.736199
    potential(screened) =   -8.106246
       potential(ionic) =  -16.831468

POLgen: Perturbative polarization orbital with L=  2

POLgen: Polarization orbital for state 2p

   izeta = 1
                     rc =    3.840021
                 energy =    2.519349
                kinetic =    4.956526
    potential(screened) =   -2.437177
       potential(ionic) =   -8.829757
atom: Total number of Sankey-type orbitals: 13

atm_pop: Valence configuration (for local Pseudopot. screening):
 2s( 2.00)                                                            
 2p( 4.00)                                                            
Vna: chval, zval:    6.00000   6.00000

Vna:  Cut-off radius for the neutral-atom potential:   3.840021

atom: _________________________________________________________________________

prinput: Basis input ----------------------------------------------------------

PAO.BasisType split     

%block ChemicalSpeciesLabel
    1    1 H                       # Species index, atomic number, species label
    2    8 O                       # Species index, atomic number, species label
%endblock ChemicalSpeciesLabel

%block PAO.Basis                 # Define Basis set
H                     1                    # Species label, number of l-shells
 n=1   0   2 P   1                   # n, l, Nzeta, Polarization, NzetaPol
   4.709      3.760   
   1.000      1.000   
O                     2                    # Species label, number of l-shells
 n=2   0   2                         # n, l, Nzeta 
   3.305      2.479   
   1.000      1.000   
 n=2   1   2 P   1                   # n, l, Nzeta, Polarization, NzetaPol
   3.840      2.479   
   1.000      1.000   
%endblock PAO.Basis

prinput: ----------------------------------------------------------------------

coor:   Atomic-coordinates input format  =     Fractional

siesta: Atomic coordinates (Bohr) and species
siesta:      8.46985   7.81502   7.85135  1        1
siesta:     10.78865   7.77974   9.60147  1        2
siesta:      8.96892   7.77974   9.60147  2        3

siesta: System type = molecule  

initatomlists: Number of atoms, orbitals, and projectors:      3    23    34

siesta: ******************** Simulation parameters ****************************
siesta:
siesta: The following are some of the parameters of the simulation.
siesta: A complete list of the parameters used, including default values,
siesta: can be found in file out.fdf
siesta:
redata: Non-Collinear-spin run           =     F
redata: SpinPolarized (Up/Down) run      =     F
redata: Number of spin components        =     1
redata: Long output                      =     F
redata: Number of Atomic Species         =        2
redata: Charge density info will appear in .RHO file
redata: Write Mulliken Pop.              =     NO
redata: Mesh Cutoff                      =   100.0000  Ry
redata: Net charge of the system         =     0.0000 |e|
redata: Max. number of SCF Iter          =       50
redata: SCF convergence failure will abort job
redata: Mixing is linear
redata: Mix DM in first SCF step ?       =     F
redata: Write Pulay info on disk?        =     F
redata: Discard 1st Pulay DM after  kick =     F
redata: New DM Mixing Weight             =     0.2500
redata: New DM Occupancy tolerance       = 0.000000000001
redata: No kicks to SCF
redata: DM Mixing Weight for Kicks       =     0.5000
redata: DM Tolerance for SCF             =     0.000100
redata: Require Energy convergence for SCF =     F
redata: DM Energy tolerance for SCF      =     0.000100 eV
redata: Require Harris convergence for SCF =     F
redata: DM Harris energy tolerance for SCF =     0.000100 eV
redata: Using Saved Data (generic)   =     F
redata: Use continuation files for DM    =     F
redata: Neglect nonoverlap interactions  =     F
redata: =================Using evolve method to do TDDFT work=================
redata: TDAP: The Final Step of the TDDFT calculation       =      500
redata: TDAP: The Step length of the TDDFT calculation      =     0.0100fs
redata: TDAP: Whether to read WaveFunction from file        =	    F
redata: TDAP: Write WaveFunction every   1000 steps
 redata: TDAP: The number of promoted electrons              =    0.0000000000000000     
 redata: TDAP: Electrons get promoted From Band              =            0
 redata: TDAP: Electrons get promoted to Band                =            0
redata: TDAP: The number of empty bands to consider         =        5
redata: TDAP: zmin of efield           = 0.000000000000
redata: TDAP: zmax of efield              = 1.000000000000
redata: TDAP: Whether to do FSSH      =	    F
redata: TDAP: How many steps per dephase     =	       0
redata: =======================================================================
redata: Electronic Temperature           =     0.0019  Ry
redata: Fix the spin of the system       =     F
redata: Dynamics option                  =     Verlet MD run
redata: Initial MD time step             =        1
redata:   Final MD time step             =      500
redata: Length of MD time step           =     0.0000  fs
redata: Initial Temperature of MD run    =   300.0000  K
redata: Perform a MD quench              =     F
redata: ***********************************************************************
Total number of electrons:     8.000000
Total ionic charge:     8.000000

* ProcessorY, Blocksize:    2   1

 Kpoints in:            1 . Kpoints trimmed:            1

siesta: k-grid: Number of k-points =     1
siesta: k-grid: Cutoff (effective) =     5.000 Ang
siesta: k-grid: Supercell and displacements
siesta: k-grid:    1   0   0      0.000
siesta: k-grid:    0   1   0      0.000
siesta: k-grid:    0   0   1      0.000

* Maximum dynamic memory allocated =     2 MB
 =================================================================================================
 ....................................-!$$$$Q$C!-..................................................
 ................................!$$$$$$$$$$$$$$$$Q$-.............................................
 .............................:$$$$$$$-.-$$$.$$$$$7$$$7...........................................
 ...........................>$$Q.$$$$$...$Q$.$$$$$!.-$$$-.........................................
 ...........................$$Q..$$$$$....!-.$$$$$!...$$$?........................................
 ...........................$$!..$$$$$.......$$$$$!...-Q$$$.......................................
 ...........................Q-...$$$$$.......$$$$$:....$$$$$......................................
 ................................$$$$$.......$$$$$!....7$$$Q-.......:$$$$-...............!$Q$$$$-.
 ................................$$$$$.......$$$$$!....!$$$$?.......$$$$$$......7$$$$$$:...$$$$$-.
 ................................$$$$$.......$$$$$!....-$$$$$......7$$$$$$O.......Q$$$$....C$$$$..
 ................................$$$$$.......$$$$$!....-$$$$$.....!$$:-$$$$C......$$$$Q--:$$Q$....
 ................................$$$$$.......$$$$$!....-$$$$$.....$$>..-$$$$:.....$$$$$...........
 ................................$$$$$.......$$$$$!....!$$$$7....$$$Q$$$$$$$$:....$$$$$...........
 ................................$$$$$.......$$$$$!....7$$$$-...!$$>.....$$$$$$$>$$$$$$?..........
 ................................$$$$$.......$$$$$:....$Q$$$....$$$.....$:........................
 ...................-??>.........$$$$$.......$$$$$!...-Q$$$....!$$Q$-.............................
 ..........>??...................$$$$$.......$$$$$!...$$Q$....C$-.................................
 ....!??..................:?....CQ$$$$:......$$$$$!.$$$$-...................77....................
 ?7?..........>....77...........$$$$$$$-....:$$$$$$$$$-..............!..........??>...............
 .........7...?!.........!.........-$Q$$....$$$$Q7........7.........?7...>.........:7?............
 ..........::........?......?.....7.............:?....-7......!........7...7..........?7-.........
 .....7...?........?......7....?!............!.....!>....7......-........?...?.........!7?........
 ....?...:.........7......!.....7.......-!:-.............?......?.............:.........>??.......
 ....7....>.........?................7?!-..->?>........-.......7.........7...>!..........??>......
 .....?...............?7....................................?7..............>?...........??.......
 .......?..................7??!......................>??!.................-?............??........
 .........77.......:............................................:.......7?............!7?.........
 .............??....................................................?7..............>?7...........
 ?.................!??!......................................7?7-................!?:..............
 ...!7......................!?????7!...........-!?7???7:......................7...................
 .........7-............................................................!7........................
 .................:-............................................>-................................
 .................................................................................................
 The following papers describe the method and practical implementation of the TDAP package:
 C. Lian, M.X. Guan, S.Q. Hu, J. Zhang, S. Meng. Photoexcitation in solids: First-principles quantum simulations by real-time TDDFT. Adv. Theo. Simul. 1, 1800055 (2018).
 W. Ma, J. Zhang, L. Yan, Y. Jiao, Y. Gao, S. Meng. Recent progresses in real-time local-basis implementation of time dependent density functional theory for electron-nucleus dynamics. Comp. Mater. Sci. 112, 478 (2016).
 J. Ren, E. Kaxiras, S. Meng. Optical properties of clusters and molecules from real-time time-dependent density functional theory using a self-consistent field. Molecular Physics 108, 1829 (2010).
 S. Meng, E. Kaxiras. Local basis-set and real time implementation of time-dependent density-functional theory for excited state dynamics simulations. J. Chem. Phys. 129, 054110 (2008).
 =================================================================================================

siesta:                 ==============================
                            Begin MD step =      1
                        ==============================

outcell: Unit cell vectors (Ang):
       10.000000    0.000000    0.000000
        0.000000   10.000000    0.000000
        0.000000    0.000000   10.000000

outcell: Cell vector modules (Ang)   :   10.000000   10.000000   10.000000
outcell: Cell angles (23,13,12) (deg):     90.0000     90.0000     90.0000
outcell: Cell volume (Ang**3)        :   1000.0000
New_DM. Step:     1
Initializing Density Matrix...

InitMesh: MESH =    64 x    64 x    64 =      262144
InitMesh: Mesh cutoff (required, used) =   100.000   113.204 Ry

efield: External electric field =    0.010000    0.000000    0.000000 Ry/Bohr/e

* Maximum dynamic memory allocated =     4 MB

stepf: Fermi-Dirac step function

fermid: Calculating for lowest-exciton excited state

stepf: Fermi-Dirac step function

siesta: Program's energy decomposition (eV):
siesta: Ebs     =      -118.417510
siesta: Eions   =       815.854478
siesta: Ena     =       170.060777
siesta: Ekin    =       351.179876
siesta: Enl     =       -55.092970
siesta: DEna    =        -0.000003
siesta: DUscf   =         0.000000
siesta: DUext   =        -0.000000
siesta: Exc     =      -113.802961
siesta: eta*DQ  =         0.000000
siesta: Emadel  =         0.000000
siesta: Emeta   =         0.000000
siesta: Emolmec =         0.000000
siesta: Ekinion =         0.000000
siesta: Eharris =      -468.785554
siesta: Etot    =      -463.509760
siesta: FreeEng =      -463.509760

siesta: iscf   Eharris(eV)      E_KS(eV)   FreeEng(eV)   dDmax  Ef(eV)
siesta:    1     -468.7856     -463.5098     -463.5098  1.3585 -2.9618
timer: Routine,Calls,Time,% = IterSCF        1       5.431  77.22
elaps: Routine,Calls,Wall,% = IterSCF        1       0.545  77.52
siesta:    2     -469.1073     -467.7934     -467.7934  0.1438  0.5407
siesta:    3     -468.3547     -467.9757     -467.9757  0.0334 -0.7119
siesta:    4     -468.2894     -468.0580     -468.0580  0.0118 -1.0582
siesta:    5     -468.2826     -468.1145     -468.1145  0.0143 -1.1528
siesta:    6     -468.2816     -468.1564     -468.1564  0.0120 -1.1755
siesta:    7     -468.2815     -468.1877     -468.1877  0.0092 -1.1785
siesta:    8     -468.2814     -468.2111     -468.2111  0.0068 -1.1769
siesta:    9     -468.2814     -468.2287     -468.2287  0.0050 -1.1750
siesta:   10     -468.2814     -468.2419     -468.2419  0.0036 -1.1734
siesta:   11     -468.2814     -468.2517     -468.2517  0.0027 -1.1724
siesta:   12     -468.2814     -468.2591     -468.2591  0.0020 -1.1717
siesta:   13     -468.2814     -468.2647     -468.2647  0.0014 -1.1713
siesta:   14     -468.2814     -468.2689     -468.2689  0.0011 -1.1711
siesta:   15     -468.2814     -468.2720     -468.2720  0.0008 -1.1709
siesta:   16     -468.2814     -468.2743     -468.2743  0.0006 -1.1708
siesta:   17     -468.2814     -468.2761     -468.2761  0.0004 -1.1708
siesta:   18     -468.2814     -468.2774     -468.2774  0.0003 -1.1708
siesta:   19     -468.2814     -468.2784     -468.2784  0.0002 -1.1707
siesta:   20     -468.2814     -468.2791     -468.2791  0.0002 -1.1707
siesta:   21     -468.2814     -468.2797     -468.2797  0.0001 -1.1707
siesta:   22     -468.2814     -468.2801     -468.2801  0.0001 -1.1707
siesta:   23     -468.2814     -468.2804     -468.2804  0.0001 -1.1707

siesta: E_KS(eV) =             -468.2807

siesta: E_KS - E_eggbox =      -468.2807

siesta: Atomic forces (eV/Ang):
----------------------------------------
   Tot   -0.068292   -0.464252   -0.053315
----------------------------------------
   Max    0.460549
   Res    0.171126    sqrt( Sum f_i^2 / 3N )
----------------------------------------
   Max    0.460549    constrained

Stress-tensor-Voigt (kbar):        0.14        0.11        0.20        0.10        0.05       -0.01
(Free)E + p*V (eV/cell)     -468.3740
Target enthalpy (eV/cell)     -468.2807

siesta: Stress tensor (static) (eV/Ang**3):
         0.000120    0.000000    0.000009
         0.000000    0.000171   -0.000001
         0.000009   -0.000001    0.000144

siesta: Pressure (static):         -0.23178600  kBar

siesta: Stress tensor (total) (eV/Ang**3):
         0.000085    0.000060   -0.000008
         0.000060    0.000068    0.000031
        -0.000008    0.000031    0.000127

siesta: Pressure (total):         -0.14954675  kBar

TDAP : Electric dipole (a.u.)  =    0.355578    0.008513   -0.413840
TDAP : Electric dipole (Debye) =    0.903790    0.021639   -1.051878
TDAP : Energy  :  -24.27 -12.57  -8.17  -6.23   2.03   4.27  10.67  12.28
TDAP : Partition :    2.00   2.00   2.00   2.00   0.00   0.00   0.00   0.00

siesta: Temp_ion =     300.000 K

* Maximum dynamic memory allocated =     4 MB

siesta:                 ==============================
                            Begin MD step =      2
                        ==============================

outcell: Unit cell vectors (Ang):
       10.000000    0.000000    0.000000
        0.000000   10.000000    0.000000
        0.000000    0.000000   10.000000

outcell: Cell vector modules (Ang)   :   10.000000   10.000000   10.000000
outcell: Cell angles (23,13,12) (deg):     90.0000     90.0000     90.0000
outcell: Cell volume (Ang**3)        :   1000.0000
New_DM. Step:     2
Re-using DM from previous geometry...
Re-using DM without extrapolation for lack of history

efield: External electric field =    0.010000    0.000000    0.000000 Ry/Bohr/e
TDAP: read envelope from 'TD.DeltaElectricField'

TDAP: Electric Field

TDAP: External EField    0.010000    0.000000    0.000000 Ry/Bohr/e

siesta: iscf   Eharris(eV)      E_KS(eV)   FreeEng(eV)   dDmax  Ef(eV)
siesta:    1     -468.2814     -468.2807     -468.2807  0.0000 -1.1707

siesta: E_KS(eV) =             -468.2814

siesta: Atomic forces (eV/Ang):
----------------------------------------
   Tot   -0.068274   -0.464240   -0.053332
----------------------------------------
   Max    0.460525
   Res    0.171061    sqrt( Sum f_i^2 / 3N )
----------------------------------------
   Max    0.460525    constrained

Stress-tensor-Voigt (kbar):        0.14        0.11        0.20        0.10        0.05       -0.01
(Free)E + p*V (eV/cell)     -468.3751
Target enthalpy (eV/cell)     -468.2814

siesta: Stress tensor (static) (eV/Ang**3):
         0.000120    0.000000    0.000009
         0.000000    0.000171   -0.000001
         0.000009   -0.000001    0.000144

siesta: Pressure (static):         -0.23247950  kBar

siesta: Stress tensor (total) (eV/Ang**3):
         0.000086    0.000060   -0.000008
         0.000060    0.000068    0.000031
        -0.000008    0.000031    0.000128

siesta: Pressure (total):         -0.15024025  kBar

TDAP : Electric dipole (a.u.)  =    0.355579    0.008513   -0.413842
TDAP : Electric dipole (Debye) =    0.903792    0.021639   -1.051881
TDAP : Energy  :  -24.27 -12.57  -8.17  -6.23   2.03   4.27  10.67  12.28
TDAP : Partition :    2.00   2.00   2.00   2.00   0.00   0.00   0.00   0.00

siesta: Temp_ion =     300.000 K

* Maximum dynamic memory allocated =     4 MB

siesta:                 ==============================
                            Begin MD step =      3
                        ==============================

outcell: Unit cell vectors (Ang):
       10.000000    0.000000    0.000000
        0.000000   10.000000    0.000000
        0.000000    0.000000   10.000000

outcell: Cell vector modules (Ang)   :   10.000000   10.000000   10.000000
outcell: Cell angles (23,13,12) (deg):     90.0000     90.0000     90.0000
outcell: Cell volume (Ang**3)        :   1000.0000
New_DM. Step:     3
Re-using DM from previous geometry...
Extrapolating Density Matrix...

TDAP: Electric Field

TDAP: External EField    0.000000    0.000000    0.000000 Ry/Bohr/e

siesta: iscf   Eharris(eV)      E_KS(eV)   FreeEng(eV)   dDmax  Ef(eV)
siesta:    1     -468.2330     -468.2337     -468.2337  0.0001 -1.1707

siesta: E_KS(eV) =             -468.2330

siesta: Atomic forces (eV/Ang):
----------------------------------------
   Tot   -0.068027   -0.464233   -0.053373
----------------------------------------
   Max    0.462137
   Res    0.158630    sqrt( Sum f_i^2 / 3N )
----------------------------------------
   Max    0.462137    constrained

Stress-tensor-Voigt (kbar):        0.17        0.03        0.03        0.10        0.05       -0.02
(Free)E + p*V (eV/cell)     -468.2819
Target enthalpy (eV/cell)     -468.2330

siesta: Stress tensor (static) (eV/Ang**3):
         0.000143   -0.000000    0.000046
         0.000000    0.000122    0.000001
         0.000007    0.000001    0.000035

siesta: Pressure (static):         -0.16061246  kBar

siesta: Stress tensor (total) (eV/Ang**3):
         0.000109    0.000059    0.000029
         0.000060    0.000019    0.000032
        -0.000010    0.000032    0.000019

siesta: Pressure (total):         -0.07837321  kBar

TDAP : Electric dipole (a.u.)  =    0.352422    0.008513   -0.413808
TDAP : Electric dipole (Debye) =    0.895769    0.021638   -1.051796
TDAP : Energy  :  -24.20 -12.50  -8.06  -6.14   2.06   4.24  10.67  12.36
TDAP : Partition :    2.00   2.00   2.00   2.00   0.00   0.00   0.00   0.00

siesta: Temp_ion =     300.000 K

* Maximum dynamic memory allocated =     4 MB

siesta:                 ==============================
                            Begin MD step =      4
                        ==============================

outcell: Unit cell vectors (Ang):
       10.000000    0.000000    0.000000
        0.000000   10.000000    0.000000
        0.000000    0.000000   10.000000

outcell: Cell vector modules (Ang)   :   10.000000   10.000000   10.000000
outcell: Cell angles (23,13,12) (deg):     90.0000     90.0000     90.0000
outcell: Cell volume (Ang**3)        :   1000.0000
New_DM. Step:     4
Re-using DM from previous geometry...
Extrapolating Density Matrix...

TDAP: Electric Field

TDAP: External EField    0.000000    0.000000    0.000000 Ry/Bohr/e

siesta: iscf   Eharris(eV)      E_KS(eV)   FreeEng(eV)   dDmax  Ef(eV)
siesta:    1     -468.2330     -468.2329     -468.2329  0.0001 -1.1707
siesta:    2     -468.2331     -468.2330     -468.2330  0.0000 -1.1707

siesta: E_KS(eV) =             -468.2330

siesta: Atomic forces (eV/Ang):
----------------------------------------
   Tot   -0.067035   -0.464255   -0.053432
----------------------------------------
   Max    0.461899
   Res    0.157209    sqrt( Sum f_i^2 / 3N )
----------------------------------------
   Max    0.461899    constrained

Stress-tensor-Voigt (kbar):        0.17        0.03        0.04        0.10        0.05       -0.02
(Free)E + p*V (eV/cell)     -468.2836
Target enthalpy (eV/cell)     -468.2330

siesta: Stress tensor (static) (eV/Ang**3):
         0.000139   -0.000000    0.000033
         0.000001    0.000122    0.000000
         0.000007    0.000000    0.000045

siesta: Pressure (static):         -0.16327033  kBar

siesta: Stress tensor (total) (eV/Ang**3):
         0.000104    0.000059    0.000016
         0.000060    0.000019    0.000032
        -0.000010    0.000032    0.000028

siesta: Pressure (total):         -0.08103108  kBar

TDAP : Electric dipole (a.u.)  =    0.344302    0.008513   -0.413831
TDAP : Electric dipole (Debye) =    0.875129    0.021639   -1.051854
TDAP : Energy  :  -24.19 -12.50  -8.07  -6.14   2.06   4.24  10.67  12.36
TDAP : Partition :    2.00   2.00   2.00   2.00   0.00   0.00   0.00   0.00

siesta: Temp_ion =     300.000 K

* Maximum dynamic memory allocated =     4 MB

siesta:                 ==============================
                            Begin MD step =      5
                        ==============================

outcell: Unit cell vectors (Ang):
       10.000000    0.000000    0.000000
        0.000000   10.000000    0.000000
        0.000000    0.000000   10.000000

outcell: Cell vector modules (Ang)   :   10.000000   10.000000   10.000000
outcell: Cell angles (23,13,12) (deg):     90.0000     90.0000     90.0000
outcell: Cell volume (Ang**3)        :   1000.0000
New_DM. Step:     5
Re-using DM from previous geometry...
Extrapolating Density Matrix...

TDAP: Electric Field

TDAP: External EField    0.000000    0.000000    0.000000 Ry/Bohr/e

siesta: iscf   Eharris(eV)      E_KS(eV)   FreeEng(eV)   dDmax  Ef(eV)
siesta:    1     -468.2331     -468.2329     -468.2329  0.0002 -1.1707
siesta:    2     -468.2331     -468.2331     -468.2331  0.0000 -1.1707

siesta: E_KS(eV) =             -468.2331

siesta: Atomic forces (eV/Ang):
----------------------------------------
   Tot   -0.065413   -0.464416   -0.053346
----------------------------------------
   Max    0.461771
   Res    0.156245    sqrt( Sum f_i^2 / 3N )
----------------------------------------
   Max    0.461771    constrained

Stress-tensor-Voigt (kbar):        0.16        0.03        0.06        0.10        0.05       -0.01
(Free)E + p*V (eV/cell)     -468.2869
Target enthalpy (eV/cell)     -468.2331

siesta: Stress tensor (static) (eV/Ang**3):
         0.000136    0.000000    0.000013
         0.000000    0.000122    0.000000
         0.000008    0.000000    0.000057

siesta: Pressure (static):         -0.16835046  kBar

siesta: Stress tensor (total) (eV/Ang**3):
         0.000102    0.000060   -0.000003
         0.000060    0.000019    0.000032
        -0.000009    0.000032    0.000040

siesta: Pressure (total):         -0.08611122  kBar

TDAP : Electric dipole (a.u.)  =    0.334643    0.008522   -0.414249
TDAP : Electric dipole (Debye) =    0.850579    0.021661   -1.052916
TDAP : Energy  :  -24.19 -12.50  -8.07  -6.14   2.06   4.25  10.68  12.36
TDAP : Partition :    2.00   2.00   2.00   2.00   0.00   0.00   0.00   0.00

siesta: Temp_ion =     300.000 K

* Maximum dynamic memory allocated =     4 MB

siesta:                 ==============================
                            Begin MD step =      6
                        ==============================

outcell: Unit cell vectors (Ang):
       10.000000    0.000000    0.000000
        0.000000   10.000000    0.000000
        0.000000    0.000000   10.000000

outcell: Cell vector modules (Ang)   :   10.000000   10.000000   10.000000
outcell: Cell angles (23,13,12) (deg):     90.0000     90.0000     90.0000
outcell: Cell volume (Ang**3)        :   1000.0000
New_DM. Step:     6
Re-using DM from previous geometry...
Extrapolating Density Matrix...

TDAP: Electric Field

TDAP: External EField    0.000000    0.000000    0.000000 Ry/Bohr/e

siesta: iscf   Eharris(eV)      E_KS(eV)   FreeEng(eV)   dDmax  Ef(eV)
siesta:    1     -468.2332     -468.2331     -468.2331  0.0001 -1.1707
siesta:    2     -468.2332     -468.2332     -468.2332  0.0000 -1.1707

siesta: E_KS(eV) =             -468.2332

siesta: Atomic forces (eV/Ang):
----------------------------------------
   Tot   -0.064289   -0.464645   -0.053485
----------------------------------------
   Max    0.461729
   Res    0.156180    sqrt( Sum f_i^2 / 3N )
----------------------------------------
   Max    0.461729    constrained

Stress-tensor-Voigt (kbar):        0.16        0.03        0.08        0.10        0.05       -0.01
(Free)E + p*V (eV/cell)     -468.2891
Target enthalpy (eV/cell)     -468.2332

siesta: Stress tensor (static) (eV/Ang**3):
         0.000132    0.000001   -0.000003
         0.000000    0.000122   -0.000000
         0.000008   -0.000000    0.000067

siesta: Pressure (static):         -0.17183462  kBar

siesta: Stress tensor (total) (eV/Ang**3):
         0.000098    0.000060   -0.000020
         0.000060    0.000019    0.000032
        -0.000009    0.000032    0.000050

siesta: Pressure (total):         -0.08959538  kBar

TDAP : Electric dipole (a.u.)  =    0.324995    0.008543   -0.415253
TDAP : Electric dipole (Debye) =    0.826054    0.021713   -1.055468
TDAP : Energy  :  -24.20 -12.50  -8.08  -6.15   2.06   4.25  10.68  12.36
TDAP : Partition :    2.00   2.00   2.00   2.00   0.00   0.00   0.00   0.00

siesta: Temp_ion =     300.000 K

* Maximum dynamic memory allocated =     4 MB

siesta:                 ==============================
                            Begin MD step =      7
                        ==============================

outcell: Unit cell vectors (Ang):
       10.000000    0.000000    0.000000
        0.000000   10.000000    0.000000
        0.000000    0.000000   10.000000

outcell: Cell vector modules (Ang)   :   10.000000   10.000000   10.000000
outcell: Cell angles (23,13,12) (deg):     90.0000     90.0000     90.0000
outcell: Cell volume (Ang**3)        :   1000.0000
New_DM. Step:     7
Re-using DM from previous geometry...
Extrapolating Density Matrix...

TDAP: Electric Field

TDAP: External EField    0.000000    0.000000    0.000000 Ry/Bohr/e

siesta: iscf   Eharris(eV)      E_KS(eV)   FreeEng(eV)   dDmax  Ef(eV)
siesta:    1     -468.2332     -468.2331     -468.2331  0.0003 -1.1707
siesta:    2     -468.2332     -468.2332     -468.2332  0.0000 -1.1707

siesta: E_KS(eV) =             -468.2332

siesta: Atomic forces (eV/Ang):
----------------------------------------
   Tot   -0.064421   -0.464750   -0.054087
----------------------------------------
   Max    0.461589
   Res    0.156147    sqrt( Sum f_i^2 / 3N )
----------------------------------------
   Max    0.461589    constrained

Stress-tensor-Voigt (kbar):        0.14        0.03        0.09        0.10        0.05       -0.02
(Free)E + p*V (eV/cell)     -468.2893
Target enthalpy (eV/cell)     -468.2332

siesta: Stress tensor (static) (eV/Ang**3):
         0.000124    0.000001   -0.000012
         0.000000    0.000122   -0.000000
         0.000006   -0.000000    0.000076

siesta: Pressure (static):         -0.17222724  kBar

siesta: Stress tensor (total) (eV/Ang**3):
         0.000090    0.000060   -0.000029
         0.000060    0.000019    0.000031
        -0.000011    0.000031    0.000059

siesta: Pressure (total):         -0.08998800  kBar

TDAP : Electric dipole (a.u.)  =    0.316426    0.008577   -0.416920
TDAP : Electric dipole (Debye) =    0.804274    0.021800   -1.059705
TDAP : Energy  :  -24.20 -12.50  -8.09  -6.16   2.06   4.25  10.68  12.36
TDAP : Partition :    2.00   2.00   2.00   2.00   0.00   0.00   0.00   0.00

siesta: Temp_ion =     300.000 K

* Maximum dynamic memory allocated =     4 MB

siesta:                 ==============================
                            Begin MD step =      8
                        ==============================

outcell: Unit cell vectors (Ang):
       10.000000    0.000000    0.000000
        0.000000   10.000000    0.000000
        0.000000    0.000000   10.000000

outcell: Cell vector modules (Ang)   :   10.000000   10.000000   10.000000
outcell: Cell angles (23,13,12) (deg):     90.0000     90.0000     90.0000
outcell: Cell volume (Ang**3)        :   1000.0000
New_DM. Step:     8
Re-using DM from previous geometry...
Extrapolating Density Matrix...

TDAP: Electric Field

TDAP: External EField    0.000000    0.000000    0.000000 Ry/Bohr/e

siesta: iscf   Eharris(eV)      E_KS(eV)   FreeEng(eV)   dDmax  Ef(eV)
siesta:    1     -468.2332     -468.2331     -468.2331  0.0002 -1.1707
siesta:    2     -468.2332     -468.2332     -468.2332  0.0000 -1.1707

siesta: E_KS(eV) =             -468.2332

siesta: Atomic forces (eV/Ang):
----------------------------------------
   Tot   -0.064995   -0.464604   -0.054462
----------------------------------------
   Max    0.461223
   Res    0.155648    sqrt( Sum f_i^2 / 3N )
----------------------------------------
   Max    0.461223    constrained

Stress-tensor-Voigt (kbar):        0.12        0.03        0.11        0.10        0.05       -0.02
(Free)E + p*V (eV/cell)     -468.2865
Target enthalpy (eV/cell)     -468.2332

siesta: Stress tensor (static) (eV/Ang**3):
         0.000108    0.000001   -0.000018
         0.000000    0.000122   -0.000000
         0.000005   -0.000000    0.000083

siesta: Pressure (static):         -0.16755883  kBar

siesta: Stress tensor (total) (eV/Ang**3):
         0.000074    0.000060   -0.000034
         0.000060    0.000019    0.000031
        -0.000012    0.000031    0.000067

siesta: Pressure (total):         -0.08531958  kBar

TDAP : Electric dipole (a.u.)  =    0.309081    0.008620   -0.419061
TDAP : Electric dipole (Debye) =    0.785605    0.021911   -1.065148
TDAP : Energy  :  -24.21 -12.51  -8.10  -6.17   2.06   4.24  10.68  12.36
TDAP : Partition :    2.00   2.00   2.00   2.00   0.00   0.00   0.00   0.00

siesta: Temp_ion =     300.000 K

* Maximum dynamic memory allocated =     4 MB

siesta:                 ==============================
                            Begin MD step =      9
                        ==============================

outcell: Unit cell vectors (Ang):
       10.000000    0.000000    0.000000
        0.000000   10.000000    0.000000
        0.000000    0.000000   10.000000

outcell: Cell vector modules (Ang)   :   10.000000   10.000000   10.000000
outcell: Cell angles (23,13,12) (deg):     90.0000     90.0000     90.0000
outcell: Cell volume (Ang**3)        :   1000.0000
New_DM. Step:     9
Re-using DM from previous geometry...
Extrapolating Density Matrix...

TDAP: Electric Field

TDAP: External EField    0.000000    0.000000    0.000000 Ry/Bohr/e

siesta: iscf   Eharris(eV)      E_KS(eV)   FreeEng(eV)   dDmax  Ef(eV)
siesta:    1     -468.2332     -468.2332     -468.2332  0.0003 -1.1707
siesta:    2     -468.2332     -468.2332     -468.2332  0.0000 -1.1707

siesta: E_KS(eV) =             -468.2332

siesta: Atomic forces (eV/Ang):
----------------------------------------
   Tot   -0.064805   -0.464177   -0.054038
----------------------------------------
   Max    0.460624
   Res    0.155201    sqrt( Sum f_i^2 / 3N )
----------------------------------------
   Max    0.460624    constrained

Stress-tensor-Voigt (kbar):        0.08        0.03        0.12        0.10        0.05       -0.02
(Free)E + p*V (eV/cell)     -468.2806
Target enthalpy (eV/cell)     -468.2332

siesta: Stress tensor (static) (eV/Ang**3):
         0.000083    0.000001   -0.000024
         0.000000    0.000122   -0.000000
         0.000006   -0.000000    0.000091

siesta: Pressure (static):         -0.15822118  kBar

siesta: Stress tensor (total) (eV/Ang**3):
         0.000049    0.000060   -0.000041
         0.000060    0.000019    0.000031
        -0.000011    0.000031    0.000074

siesta: Pressure (total):         -0.07598193  kBar

TDAP : Electric dipole (a.u.)  =    0.303008    0.008667   -0.421388
TDAP : Electric dipole (Debye) =    0.770170    0.022031   -1.071063
TDAP : Energy  :  -24.23 -12.52  -8.11  -6.18   2.05   4.24  10.67  12.36
TDAP : Partition :    2.00   2.00   2.00   2.00   0.00   0.00   0.00   0.00

siesta: Temp_ion =     300.000 K

* Maximum dynamic memory allocated =     4 MB

siesta:                 ==============================
                            Begin MD step =     10
                        ==============================

outcell: Unit cell vectors (Ang):
       10.000000    0.000000    0.000000
        0.000000   10.000000    0.000000
        0.000000    0.000000   10.000000

outcell: Cell vector modules (Ang)   :   10.000000   10.000000   10.000000
outcell: Cell angles (23,13,12) (deg):     90.0000     90.0000     90.0000
outcell: Cell volume (Ang**3)        :   1000.0000
New_DM. Step:    10
Re-using DM from previous geometry...
Extrapolating Density Matrix...

TDAP: Electric Field

TDAP: External EField    0.000000    0.000000    0.000000 Ry/Bohr/e

siesta: iscf   Eharris(eV)      E_KS(eV)   FreeEng(eV)   dDmax  Ef(eV)
siesta:    1     -468.2332     -468.2332     -468.2332  0.0002 -1.1707
siesta:    2     -468.2332     -468.2332     -468.2332  0.0000 -1.1707

siesta: E_KS(eV) =             -468.2332

siesta: Atomic forces (eV/Ang):
----------------------------------------
   Tot   -0.063749   -0.463628   -0.052957
----------------------------------------
   Max    0.459958
   Res    0.155390    sqrt( Sum f_i^2 / 3N )
----------------------------------------
   Max    0.459958    constrained

Stress-tensor-Voigt (kbar):        0.03        0.03        0.13        0.10        0.05       -0.01
(Free)E + p*V (eV/cell)     -468.2728
Target enthalpy (eV/cell)     -468.2332

siesta: Stress tensor (static) (eV/Ang**3):
         0.000053    0.000001   -0.000030
         0.000000    0.000122   -0.000001
         0.000010   -0.000001    0.000098

siesta: Pressure (static):         -0.14567500  kBar

siesta: Stress tensor (total) (eV/Ang**3):
         0.000018    0.000060   -0.000047
         0.000060    0.000019    0.000031
        -0.000007    0.000031    0.000081

siesta: Pressure (total):         -0.06343575  kBar

TDAP : Electric dipole (a.u.)  =    0.298346    0.008713   -0.423649
TDAP : Electric dipole (Debye) =    0.758321    0.022147   -1.076809
TDAP : Energy  :  -24.24 -12.53  -8.12  -6.19   2.05   4.24  10.67  12.35
TDAP : Partition :    2.00   2.00   2.00   2.00   0.00   0.00   0.00   0.00

siesta: Temp_ion =     300.000 K

* Maximum dynamic memory allocated =     4 MB

siesta:                 ==============================
                            Begin MD step =     11
                        ==============================

outcell: Unit cell vectors (Ang):
       10.000000    0.000000    0.000000
        0.000000   10.000000    0.000000
        0.000000    0.000000   10.000000

outcell: Cell vector modules (Ang)   :   10.000000   10.000000   10.000000
outcell: Cell angles (23,13,12) (deg):     90.0000     90.0000     90.0000
outcell: Cell volume (Ang**3)        :   1000.0000
New_DM. Step:    11
Re-using DM from previous geometry...
Extrapolating Density Matrix...

TDAP: Electric Field

TDAP: External EField    0.000000    0.000000    0.000000 Ry/Bohr/e

siesta: iscf   Eharris(eV)      E_KS(eV)   FreeEng(eV)   dDmax  Ef(eV)
siesta:    1     -468.2333     -468.2332     -468.2332  0.0001 -1.1707
siesta:    2     -468.2333     -468.2333     -468.2333  0.0000 -1.1707

siesta: E_KS(eV) =             -468.2333

siesta: Atomic forces (eV/Ang):
----------------------------------------
   Tot   -0.062859   -0.463159   -0.052280
----------------------------------------
   Max    0.459394
   Res    0.156755    sqrt( Sum f_i^2 / 3N )
----------------------------------------
   Max    0.459394    constrained

Stress-tensor-Voigt (kbar):       -0.02        0.03        0.14        0.10        0.05       -0.00
(Free)E + p*V (eV/cell)     -468.2649
Target enthalpy (eV/cell)     -468.2333

siesta: Stress tensor (static) (eV/Ang**3):
         0.000022    0.000001   -0.000033
         0.000000    0.000122   -0.000001
         0.000015   -0.000001    0.000105

siesta: Pressure (static):         -0.13299798  kBar

siesta: Stress tensor (total) (eV/Ang**3):
        -0.000012    0.000060   -0.000050
         0.000059    0.000019    0.000031
        -0.000002    0.000031    0.000088

siesta: Pressure (total):         -0.05075873  kBar

TDAP : Electric dipole (a.u.)  =    0.295541    0.008753   -0.425661
TDAP : Electric dipole (Debye) =    0.751192    0.022249   -1.081924
TDAP : Energy  :  -24.24 -12.54  -8.13  -6.20   2.05   4.23  10.67  12.35
TDAP : Partition :    2.00   2.00   2.00   2.00   0.00   0.00   0.00   0.00

siesta: Temp_ion =     300.000 K

* Maximum dynamic memory allocated =     4 MB

siesta:                 ==============================
                            Begin MD step =     12
                        ==============================

outcell: Unit cell vectors (Ang):
       10.000000    0.000000    0.000000
        0.000000   10.000000    0.000000
        0.000000    0.000000   10.000000

outcell: Cell vector modules (Ang)   :   10.000000   10.000000   10.000000
outcell: Cell angles (23,13,12) (deg):     90.0000     90.0000     90.0000
outcell: Cell volume (Ang**3)        :   1000.0000
New_DM. Step:    12
Re-using DM from previous geometry...
Extrapolating Density Matrix...

TDAP: Electric Field

TDAP: External EField    0.000000    0.000000    0.000000 Ry/Bohr/e

siesta: iscf   Eharris(eV)      E_KS(eV)   FreeEng(eV)   dDmax  Ef(eV)
siesta:    1     -468.2332     -468.2332     -468.2332  0.0002 -1.1707
siesta:    2     -468.2332     -468.2332     -468.2332  0.0000 -1.1707

siesta: E_KS(eV) =             -468.2333

siesta: Atomic forces (eV/Ang):
----------------------------------------
   Tot   -0.062437   -0.462928   -0.052511
----------------------------------------
   Max    0.459029
   Res    0.159639    sqrt( Sum f_i^2 / 3N )
----------------------------------------
   Max    0.459029    constrained

Stress-tensor-Voigt (kbar):       -0.06        0.03        0.16        0.10        0.05        0.01
(Free)E + p*V (eV/cell)     -468.2589
Target enthalpy (eV/cell)     -468.2333

siesta: Stress tensor (static) (eV/Ang**3):
        -0.000005    0.000001   -0.000028
         0.000000    0.000122   -0.000001
         0.000020   -0.000001    0.000113

siesta: Pressure (static):         -0.12338120  kBar

siesta: Stress tensor (total) (eV/Ang**3):
        -0.000039    0.000060   -0.000045
         0.000059    0.000019    0.000031
         0.000004    0.000031    0.000097

siesta: Pressure (total):         -0.04114195  kBar

TDAP : Electric dipole (a.u.)  =    0.295171    0.008784   -0.427198
TDAP : Electric dipole (Debye) =    0.750250    0.022327   -1.085830
TDAP : Energy  :  -24.24 -12.54  -8.13  -6.20   2.04   4.23  10.67  12.35
TDAP : Partition :    2.00   2.00   2.00   2.00   0.00   0.00   0.00   0.00

siesta: Temp_ion =     300.000 K

* Maximum dynamic memory allocated =     4 MB

siesta:                 ==============================
                            Begin MD step =     13
                        ==============================

outcell: Unit cell vectors (Ang):
       10.000000    0.000000    0.000000
        0.000000   10.000000    0.000000
        0.000000    0.000000   10.000000

outcell: Cell vector modules (Ang)   :   10.000000   10.000000   10.000000
outcell: Cell angles (23,13,12) (deg):     90.0000     90.0000     90.0000
outcell: Cell volume (Ang**3)        :   1000.0000
New_DM. Step:    13
Re-using DM from previous geometry...
Extrapolating Density Matrix...

TDAP: Electric Field

TDAP: External EField    0.000000    0.000000    0.000000 Ry/Bohr/e

siesta: iscf   Eharris(eV)      E_KS(eV)   FreeEng(eV)   dDmax  Ef(eV)
siesta:    1     -468.2333     -468.2332     -468.2332  0.0001 -1.1707
siesta:    2     -468.2333     -468.2333     -468.2333  0.0000 -1.1707

siesta: E_KS(eV) =             -468.2333

siesta: Atomic forces (eV/Ang):
----------------------------------------
   Tot   -0.062017   -0.463209   -0.053112
----------------------------------------
   Max    0.459132
   Res    0.163846    sqrt( Sum f_i^2 / 3N )
----------------------------------------
   Max    0.459132    constrained

Stress-tensor-Voigt (kbar):       -0.09        0.03        0.17        0.10        0.05        0.01
(Free)E + p*V (eV/cell)     -468.2556
Target enthalpy (eV/cell)     -468.2333

siesta: Stress tensor (static) (eV/Ang**3):
        -0.000024    0.000001   -0.000017
         0.000000    0.000122   -0.000001
         0.000025   -0.000001    0.000123

siesta: Pressure (static):         -0.11810666  kBar

siesta: Stress tensor (total) (eV/Ang**3):
        -0.000058    0.000060   -0.000034
         0.000059    0.000019    0.000030
         0.000008    0.000030    0.000106

siesta: Pressure (total):         -0.03586742  kBar

TDAP : Electric dipole (a.u.)  =    0.297415    0.008799   -0.427958
TDAP : Electric dipole (Debye) =    0.755953    0.022366   -1.087762
TDAP : Energy  :  -24.24 -12.53  -8.13  -6.19   2.04   4.23  10.67  12.35
TDAP : Partition :    2.00   2.00   2.00   2.00   0.00   0.00   0.00   0.00

siesta: Temp_ion =     300.000 K

* Maximum dynamic memory allocated =     4 MB

siesta:                 ==============================
                            Begin MD step =     14
                        ==============================

outcell: Unit cell vectors (Ang):
       10.000000    0.000000    0.000000
        0.000000   10.000000    0.000000
        0.000000    0.000000   10.000000

outcell: Cell vector modules (Ang)   :   10.000000   10.000000   10.000000
outcell: Cell angles (23,13,12) (deg):     90.0000     90.0000     90.0000
outcell: Cell volume (Ang**3)        :   1000.0000
New_DM. Step:    14
Re-using DM from previous geometry...
Extrapolating Density Matrix...

TDAP: Electric Field

TDAP: External EField    0.000000    0.000000    0.000000 Ry/Bohr/e

siesta: iscf   Eharris(eV)      E_KS(eV)   FreeEng(eV)   dDmax  Ef(eV)
siesta:    1     -468.2333     -468.2332     -468.2332  0.0002 -1.1707
siesta:    2     -468.2333     -468.2333     -468.2333  0.0000 -1.1707

siesta: E_KS(eV) =             -468.2333

siesta: Atomic forces (eV/Ang):
----------------------------------------
   Tot   -0.061441   -0.463861   -0.053329
----------------------------------------
   Max    0.459626
   Res    0.168654    sqrt( Sum f_i^2 / 3N )
----------------------------------------
   Max    0.459626    constrained

Stress-tensor-Voigt (kbar):       -0.11        0.03        0.18        0.10        0.05        0.02
(Free)E + p*V (eV/cell)     -468.2544
Target enthalpy (eV/cell)     -468.2333

siesta: Stress tensor (static) (eV/Ang**3):
        -0.000035    0.000001   -0.000001
         0.000000    0.000122   -0.000001
         0.000026   -0.000001    0.000130

siesta: Pressure (static):         -0.11600670  kBar

siesta: Stress tensor (total) (eV/Ang**3):
        -0.000069    0.000060   -0.000018
         0.000059    0.000019    0.000030
         0.000010    0.000030    0.000113

siesta: Pressure (total):         -0.03376745  kBar

TDAP : Electric dipole (a.u.)  =    0.301613    0.008795   -0.427728
TDAP : Electric dipole (Debye) =    0.766625    0.022354   -1.087178
TDAP : Energy  :  -24.23 -12.53  -8.11  -6.18   2.05   4.23  10.67  12.35
TDAP : Partition :    2.00   2.00   2.00   2.00   0.00   0.00   0.00   0.00

siesta: Temp_ion =     300.000 K

* Maximum dynamic memory allocated =     4 MB

siesta:                 ==============================
                            Begin MD step =     15
                        ==============================

outcell: Unit cell vectors (Ang):
       10.000000    0.000000    0.000000
        0.000000   10.000000    0.000000
        0.000000    0.000000   10.000000

outcell: Cell vector modules (Ang)   :   10.000000   10.000000   10.000000
outcell: Cell angles (23,13,12) (deg):     90.0000     90.0000     90.0000
outcell: Cell volume (Ang**3)        :   1000.0000
New_DM. Step:    15
Re-using DM from previous geometry...
Extrapolating Density Matrix...

TDAP: Electric Field

TDAP: External EField    0.000000    0.000000    0.000000 Ry/Bohr/e

siesta: iscf   Eharris(eV)      E_KS(eV)   FreeEng(eV)   dDmax  Ef(eV)
siesta:    1     -468.2334     -468.2333     -468.2333  0.0001 -1.1707
siesta:    2     -468.2333     -468.2333     -468.2333  0.0000 -1.1707

siesta: E_KS(eV) =             -468.2333

siesta: Atomic forces (eV/Ang):
----------------------------------------
   Tot   -0.061096   -0.464773   -0.053198
----------------------------------------
   Max    0.460441
   Res    0.173794    sqrt( Sum f_i^2 / 3N )
----------------------------------------
   Max    0.460441    constrained

Stress-tensor-Voigt (kbar):       -0.12        0.03        0.18        0.10        0.05        0.01
(Free)E + p*V (eV/cell)     -468.2542
Target enthalpy (eV/cell)     -468.2333

siesta: Stress tensor (static) (eV/Ang**3):
        -0.000038    0.000000    0.000021
         0.000000    0.000122   -0.000001
         0.000025   -0.000001    0.000132

siesta: Pressure (static):         -0.11557168  kBar

siesta: Stress tensor (total) (eV/Ang**3):
        -0.000072    0.000059    0.000004
         0.000059    0.000019    0.000030
         0.000008    0.000030    0.000115

siesta: Pressure (total):         -0.03333243  kBar

TDAP : Electric dipole (a.u.)  =    0.306535    0.008771   -0.426556
TDAP : Electric dipole (Debye) =    0.779134    0.022294   -1.084198
TDAP : Energy  :  -24.22 -12.52  -8.10  -6.17   2.05   4.24  10.67  12.35
TDAP : Partition :    2.00   2.00   2.00   2.00   0.00   0.00   0.00   0.00

siesta: Temp_ion =     300.000 K

* Maximum dynamic memory allocated =     4 MB

siesta:                 ==============================
                            Begin MD step =     16
                        ==============================

outcell: Unit cell vectors (Ang):
       10.000000    0.000000    0.000000
        0.000000   10.000000    0.000000
        0.000000    0.000000   10.000000

outcell: Cell vector modules (Ang)   :   10.000000   10.000000   10.000000
outcell: Cell angles (23,13,12) (deg):     90.0000     90.0000     90.0000
outcell: Cell volume (Ang**3)        :   1000.0000
New_DM. Step:    16
Re-using DM from previous geometry...
Extrapolating Density Matrix...

TDAP: Electric Field

TDAP: External EField    0.000000    0.000000    0.000000 Ry/Bohr/e

siesta: iscf   Eharris(eV)      E_KS(eV)   FreeEng(eV)   dDmax  Ef(eV)
siesta:    1     -468.2334     -468.2333     -468.2333  0.0001 -1.1707
siesta:    2     -468.2333     -468.2333     -468.2333  0.0000 -1.1707

siesta: E_KS(eV) =             -468.2334

siesta: Atomic forces (eV/Ang):
----------------------------------------
   Tot   -0.061106   -0.465607   -0.053146
----------------------------------------
   Max    0.461196
   Res    0.179173    sqrt( Sum f_i^2 / 3N )
----------------------------------------
   Max    0.461196    constrained

Stress-tensor-Voigt (kbar):       -0.11        0.03        0.18        0.10        0.05        0.00
(Free)E + p*V (eV/cell)     -468.2546
Target enthalpy (eV/cell)     -468.2334

siesta: Stress tensor (static) (eV/Ang**3):
        -0.000036   -0.000000    0.000045
         0.000000    0.000123   -0.000001
         0.000020   -0.000001    0.000131

siesta: Pressure (static):         -0.11620721  kBar

siesta: Stress tensor (total) (eV/Ang**3):
        -0.000070    0.000059    0.000028
         0.000059    0.000020    0.000030
         0.000003    0.000030    0.000114

siesta: Pressure (total):         -0.03396796  kBar

TDAP : Electric dipole (a.u.)  =    0.311130    0.008734   -0.424716
TDAP : Electric dipole (Debye) =    0.790813    0.022200   -1.079520
TDAP : Energy  :  -24.21 -12.51  -8.09  -6.16   2.05   4.24  10.67  12.35
TDAP : Partition :    2.00   2.00   2.00   2.00   0.00   0.00   0.00   0.00

siesta: Temp_ion =     300.000 K

* Maximum dynamic memory allocated =     4 MB

siesta:                 ==============================
                            Begin MD step =     17
                        ==============================

outcell: Unit cell vectors (Ang):
       10.000000    0.000000    0.000000
        0.000000   10.000000    0.000000
        0.000000    0.000000   10.000000

outcell: Cell vector modules (Ang)   :   10.000000   10.000000   10.000000
outcell: Cell angles (23,13,12) (deg):     90.0000     90.0000     90.0000
outcell: Cell volume (Ang**3)        :   1000.0000
New_DM. Step:    17
Re-using DM from previous geometry...
Extrapolating Density Matrix...

TDAP: Electric Field

TDAP: External EField    0.000000    0.000000    0.000000 Ry/Bohr/e

siesta: iscf   Eharris(eV)      E_KS(eV)   FreeEng(eV)   dDmax  Ef(eV)
siesta:    1     -468.2334     -468.2334     -468.2334  0.0001 -1.1707

siesta: E_KS(eV) =             -468.2334

siesta: Atomic forces (eV/Ang):
----------------------------------------
   Tot   -0.060820   -0.466139   -0.053223
----------------------------------------
   Max    0.461601
   Res    0.183480    sqrt( Sum f_i^2 / 3N )
----------------------------------------
   Max    0.461601    constrained

Stress-tensor-Voigt (kbar):       -0.10        0.03        0.19        0.10        0.05       -0.00
(Free)E + p*V (eV/cell)     -468.2573
Target enthalpy (eV/cell)     -468.2334

siesta: Stress tensor (static) (eV/Ang**3):
        -0.000030   -0.000001    0.000066
         0.000000    0.000123   -0.000001
         0.000016   -0.000001    0.000132

siesta: Pressure (static):         -0.12055664  kBar

siesta: Stress tensor (total) (eV/Ang**3):
        -0.000064    0.000058    0.000049
         0.000059    0.000020    0.000030
        -0.000001    0.000030    0.000116

siesta: Pressure (total):         -0.03831739  kBar

TDAP : Electric dipole (a.u.)  =    0.314937    0.008689   -0.422526
TDAP : Electric dipole (Debye) =    0.800490    0.022086   -1.073956
TDAP : Energy  :  -24.20 -12.50  -8.08  -6.15   2.06   4.24  10.67  12.36
TDAP : Partition :    2.00   2.00   2.00   2.00   0.00   0.00   0.00   0.00

siesta: Temp_ion =     300.000 K

* Maximum dynamic memory allocated =     4 MB

siesta:                 ==============================
                            Begin MD step =     18
                        ==============================

outcell: Unit cell vectors (Ang):
       10.000000    0.000000    0.000000
        0.000000   10.000000    0.000000
        0.000000    0.000000   10.000000

outcell: Cell vector modules (Ang)   :   10.000000   10.000000   10.000000
outcell: Cell angles (23,13,12) (deg):     90.0000     90.0000     90.0000
outcell: Cell volume (Ang**3)        :   1000.0000
New_DM. Step:    18
Re-using DM from previous geometry...
Extrapolating Density Matrix...

TDAP: Electric Field

TDAP: External EField    0.000000    0.000000    0.000000 Ry/Bohr/e

siesta: iscf   Eharris(eV)      E_KS(eV)   FreeEng(eV)   dDmax  Ef(eV)
siesta:    1     -468.2334     -468.2333     -468.2333  0.0001 -1.1707
siesta:    2     -468.2334     -468.2334     -468.2334  0.0000 -1.1707

siesta: E_KS(eV) =             -468.2334

siesta: Atomic forces (eV/Ang):
----------------------------------------
   Tot   -0.060064   -0.466208   -0.053208
----------------------------------------
   Max    0.461706
   Res    0.186516    sqrt( Sum f_i^2 / 3N )
----------------------------------------
   Max    0.461706    constrained

Stress-tensor-Voigt (kbar):       -0.11        0.03        0.18        0.10        0.05       -0.01
(Free)E + p*V (eV/cell)     -468.2533
Target enthalpy (eV/cell)     -468.2334

siesta: Stress tensor (static) (eV/Ang**3):
        -0.000036   -0.000001    0.000073
         0.000000    0.000123   -0.000001
         0.000011   -0.000001    0.000127

siesta: Pressure (static):         -0.11421433  kBar

siesta: Stress tensor (total) (eV/Ang**3):
        -0.000070    0.000058    0.000056
         0.000060    0.000020    0.000030
        -0.000006    0.000030    0.000110

siesta: Pressure (total):         -0.03197509  kBar

TDAP : Electric dipole (a.u.)  =    0.317752    0.008643   -0.420242
TDAP : Electric dipole (Debye) =    0.807645    0.021968   -1.068150
TDAP : Energy  :  -24.21 -12.51  -8.08  -6.15   2.06   4.24  10.67  12.36
TDAP : Partition :    2.00   2.00   2.00   2.00   0.00   0.00   0.00   0.00

siesta: Temp_ion =     300.000 K

* Maximum dynamic memory allocated =     4 MB

siesta:                 ==============================
                            Begin MD step =     19
                        ==============================

outcell: Unit cell vectors (Ang):
       10.000000    0.000000    0.000000
        0.000000   10.000000    0.000000
        0.000000    0.000000   10.000000

outcell: Cell vector modules (Ang)   :   10.000000   10.000000   10.000000
outcell: Cell angles (23,13,12) (deg):     90.0000     90.0000     90.0000
outcell: Cell volume (Ang**3)        :   1000.0000
New_DM. Step:    19
Re-using DM from previous geometry...
Extrapolating Density Matrix...

TDAP: Electric Field

TDAP: External EField    0.000000    0.000000    0.000000 Ry/Bohr/e

siesta: iscf   Eharris(eV)      E_KS(eV)   FreeEng(eV)   dDmax  Ef(eV)
siesta:    1     -468.2334     -468.2334     -468.2334  0.0001 -1.1707
siesta:    2     -468.2334     -468.2334     -468.2334  0.0000 -1.1707

siesta: E_KS(eV) =             -468.2334

siesta: Atomic forces (eV/Ang):
----------------------------------------
   Tot   -0.059626   -0.466069   -0.053207
----------------------------------------
   Max    0.461672
   Res    0.185752    sqrt( Sum f_i^2 / 3N )
----------------------------------------
   Max    0.461672    constrained

Stress-tensor-Voigt (kbar):       -0.12        0.03        0.17        0.10        0.05       -0.01
(Free)E + p*V (eV/cell)     -468.2510
Target enthalpy (eV/cell)     -468.2334

siesta: Stress tensor (static) (eV/Ang**3):
        -0.000039   -0.000001    0.000070
         0.000000    0.000123   -0.000001
         0.000011   -0.000001    0.000122

siesta: Pressure (static):         -0.11053241  kBar

siesta: Stress tensor (total) (eV/Ang**3):
        -0.000073    0.000058    0.000053
         0.000060    0.000020    0.000030
        -0.000006    0.000030    0.000106

siesta: Pressure (total):         -0.02829317  kBar

TDAP : Electric dipole (a.u.)  =    0.319880    0.008602   -0.418240
TDAP : Electric dipole (Debye) =    0.813055    0.021864   -1.063060
TDAP : Energy  :  -24.21 -12.51  -8.09  -6.15   2.06   4.24  10.67  12.36
TDAP : Partition :    2.00   2.00   2.00   2.00   0.00   0.00   0.00   0.00

siesta: Temp_ion =     300.000 K

* Maximum dynamic memory allocated =     4 MB

siesta:                 ==============================
                            Begin MD step =     20
                        ==============================

outcell: Unit cell vectors (Ang):
       10.000000    0.000000    0.000000
        0.000000   10.000000    0.000000
        0.000000    0.000000   10.000000

outcell: Cell vector modules (Ang)   :   10.000000   10.000000   10.000000
outcell: Cell angles (23,13,12) (deg):     90.0000     90.0000     90.0000
outcell: Cell volume (Ang**3)        :   1000.0000
New_DM. Step:    20
Re-using DM from previous geometry...
Extrapolating Density Matrix...

TDAP: Electric Field

TDAP: External EField    0.000000    0.000000    0.000000 Ry/Bohr/e

siesta: iscf   Eharris(eV)      E_KS(eV)   FreeEng(eV)   dDmax  Ef(eV)
siesta:    1     -468.2334     -468.2334     -468.2334  0.0002 -1.1707
siesta:    2     -468.2334     -468.2334     -468.2334  0.0000 -1.1707

siesta: E_KS(eV) =             -468.2334

siesta: Atomic forces (eV/Ang):
----------------------------------------
   Tot   -0.060201   -0.465753   -0.053719
----------------------------------------
   Max    0.461627
   Res    0.181832    sqrt( Sum f_i^2 / 3N )
----------------------------------------
   Max    0.461627    constrained

Stress-tensor-Voigt (kbar):       -0.12        0.03        0.15        0.10        0.05       -0.01
(Free)E + p*V (eV/cell)     -468.2481
Target enthalpy (eV/cell)     -468.2334

siesta: Stress tensor (static) (eV/Ang**3):
        -0.000038   -0.000001    0.000059
         0.000000    0.000123   -0.000001
         0.000012   -0.000001    0.000113

siesta: Pressure (static):         -0.10584871  kBar

siesta: Stress tensor (total) (eV/Ang**3):
        -0.000072    0.000059    0.000042
         0.000060    0.000020    0.000031
        -0.000005    0.000031    0.000096

siesta: Pressure (total):         -0.02360946  kBar

TDAP : Electric dipole (a.u.)  =    0.320977    0.008572   -0.416754
TDAP : Electric dipole (Debye) =    0.815843    0.021789   -1.059285
TDAP : Energy  :  -24.21 -12.51  -8.09  -6.16   2.06   4.24  10.67  12.36
TDAP : Partition :    2.00   2.00   2.00   2.00   0.00   0.00   0.00   0.00

siesta: Temp_ion =     300.000 K

* Maximum dynamic memory allocated =     4 MB

siesta:                 ==============================
                            Begin MD step =     21
                        ==============================

outcell: Unit cell vectors (Ang):
       10.000000    0.000000    0.000000
        0.000000   10.000000    0.000000
        0.000000    0.000000   10.000000

outcell: Cell vector modules (Ang)   :   10.000000   10.000000   10.000000
outcell: Cell angles (23,13,12) (deg):     90.0000     90.0000     90.0000
outcell: Cell volume (Ang**3)        :   1000.0000
New_DM. Step:    21
Re-using DM from previous geometry...
Extrapolating Density Matrix...

TDAP: Electric Field

TDAP: External EField    0.000000    0.000000    0.000000 Ry/Bohr/e

siesta: iscf   Eharris(eV)      E_KS(eV)   FreeEng(eV)   dDmax  Ef(eV)
siesta:    1     -468.2334     -468.2334     -468.2334  0.0001 -1.1707
siesta:    2     -468.2334     -468.2334     -468.2334  0.0000 -1.1707

siesta: E_KS(eV) =             -468.2334

siesta: Atomic forces (eV/Ang):
----------------------------------------
   Tot   -0.061404   -0.465321   -0.054514
----------------------------------------
   Max    0.461562
   Res    0.174423    sqrt( Sum f_i^2 / 3N )
----------------------------------------
   Max    0.461562    constrained

Stress-tensor-Voigt (kbar):       -0.10        0.03        0.14        0.10        0.05       -0.00
(Free)E + p*V (eV/cell)     -468.2482
Target enthalpy (eV/cell)     -468.2334

siesta: Stress tensor (static) (eV/Ang**3):
        -0.000026   -0.000000    0.000043
         0.000000    0.000123   -0.000001
         0.000014   -0.000001    0.000101

siesta: Pressure (static):         -0.10601540  kBar

siesta: Stress tensor (total) (eV/Ang**3):
        -0.000060    0.000059    0.000026
         0.000060    0.000020    0.000031
        -0.000003    0.000031    0.000085

siesta: Pressure (total):         -0.02377615  kBar

TDAP : Electric dipole (a.u.)  =    0.321005    0.008556   -0.415895
TDAP : Electric dipole (Debye) =    0.815913    0.021746   -1.057099
TDAP : Energy  :  -24.22 -12.51  -8.09  -6.16   2.05   4.24  10.67  12.36
TDAP : Partition :    2.00   2.00   2.00   2.00   0.00   0.00   0.00   0.00

siesta: Temp_ion =     300.000 K

* Maximum dynamic memory allocated =     4 MB

siesta:                 ==============================
                            Begin MD step =     22
                        ==============================

outcell: Unit cell vectors (Ang):
       10.000000    0.000000    0.000000
        0.000000   10.000000    0.000000
        0.000000    0.000000   10.000000

outcell: Cell vector modules (Ang)   :   10.000000   10.000000   10.000000
outcell: Cell angles (23,13,12) (deg):     90.0000     90.0000     90.0000
outcell: Cell volume (Ang**3)        :   1000.0000
New_DM. Step:    22
Re-using DM from previous geometry...
Extrapolating Density Matrix...

TDAP: Electric Field

TDAP: External EField    0.000000    0.000000    0.000000 Ry/Bohr/e

siesta: iscf   Eharris(eV)      E_KS(eV)   FreeEng(eV)   dDmax  Ef(eV)
siesta:    1     -468.2334     -468.2334     -468.2334  0.0001 -1.1707
siesta:    2     -468.2334     -468.2334     -468.2334  0.0000 -1.1707

siesta: E_KS(eV) =             -468.2334

siesta: Atomic forces (eV/Ang):
----------------------------------------
   Tot   -0.062509   -0.464791   -0.054699
----------------------------------------
   Max    0.461452
   Res    0.165660    sqrt( Sum f_i^2 / 3N )
----------------------------------------
   Max    0.461452    constrained

Stress-tensor-Voigt (kbar):       -0.06        0.03        0.12        0.10        0.05        0.00
(Free)E + p*V (eV/cell)     -468.2518
Target enthalpy (eV/cell)     -468.2334

siesta: Stress tensor (static) (eV/Ang**3):
        -0.000003    0.000000    0.000023
         0.000000    0.000123   -0.000001
         0.000018   -0.000000    0.000090

siesta: Pressure (static):         -0.11176464  kBar

siesta: Stress tensor (total) (eV/Ang**3):
        -0.000037    0.000059    0.000007
         0.000059    0.000020    0.000031
         0.000001    0.000031    0.000073

siesta: Pressure (total):         -0.02952539  kBar

TDAP : Electric dipole (a.u.)  =    0.319962    0.008549   -0.415507
TDAP : Electric dipole (Debye) =    0.813262    0.021729   -1.056115
TDAP : Energy  :  -24.22 -12.52  -8.10  -6.17   2.05   4.24  10.67  12.36
TDAP : Partition :    2.00   2.00   2.00   2.00   0.00   0.00   0.00   0.00

siesta: Temp_ion =     300.000 K

* Maximum dynamic memory allocated =     4 MB

siesta:                 ==============================
                            Begin MD step =     23
                        ==============================

outcell: Unit cell vectors (Ang):
       10.000000    0.000000    0.000000
        0.000000   10.000000    0.000000
        0.000000    0.000000   10.000000

outcell: Cell vector modules (Ang)   :   10.000000   10.000000   10.000000
outcell: Cell angles (23,13,12) (deg):     90.0000     90.0000     90.0000
outcell: Cell volume (Ang**3)        :   1000.0000
New_DM. Step:    23
Re-using DM from previous geometry...
Extrapolating Density Matrix...

TDAP: Electric Field

TDAP: External EField    0.000000    0.000000    0.000000 Ry/Bohr/e

siesta: iscf   Eharris(eV)      E_KS(eV)   FreeEng(eV)   dDmax  Ef(eV)
siesta:    1     -468.2334     -468.2334     -468.2334  0.0002 -1.1707
siesta:    2     -468.2334     -468.2334     -468.2334  0.0000 -1.1707

siesta: E_KS(eV) =             -468.2334

siesta: Atomic forces (eV/Ang):
----------------------------------------
   Tot   -0.063296   -0.464444   -0.054024
----------------------------------------
   Max    0.461513
   Res    0.159067    sqrt( Sum f_i^2 / 3N )
----------------------------------------
   Max    0.461513    constrained

Stress-tensor-Voigt (kbar):       -0.02        0.03        0.10        0.09        0.05        0.02
(Free)E + p*V (eV/cell)     -468.2577
Target enthalpy (eV/cell)     -468.2334

siesta: Stress tensor (static) (eV/Ang**3):
         0.000023    0.000001    0.000004
         0.000000    0.000123   -0.000000
         0.000026   -0.000000    0.000082

siesta: Pressure (static):         -0.12118249  kBar

siesta: Stress tensor (total) (eV/Ang**3):
        -0.000011    0.000060   -0.000013
         0.000059    0.000020    0.000031
         0.000009    0.000031    0.000065

siesta: Pressure (total):         -0.03894324  kBar

TDAP : Electric dipole (a.u.)  =    0.318021    0.008547   -0.415404
TDAP : Electric dipole (Debye) =    0.808329    0.021725   -1.055853
TDAP : Energy  :  -24.23 -12.52  -8.10  -6.17   2.05   4.24  10.67  12.36
TDAP : Partition :    2.00   2.00   2.00   2.00   0.00   0.00   0.00   0.00

siesta: Temp_ion =     300.000 K

* Maximum dynamic memory allocated =     4 MB

siesta:                 ==============================
                            Begin MD step =     24
                        ==============================

outcell: Unit cell vectors (Ang):
       10.000000    0.000000    0.000000
        0.000000   10.000000    0.000000
        0.000000    0.000000   10.000000

outcell: Cell vector modules (Ang)   :   10.000000   10.000000   10.000000
outcell: Cell angles (23,13,12) (deg):     90.0000     90.0000     90.0000
outcell: Cell volume (Ang**3)        :   1000.0000
New_DM. Step:    24
Re-using DM from previous geometry...
Extrapolating Density Matrix...

TDAP: Electric Field

TDAP: External EField    0.000000    0.000000    0.000000 Ry/Bohr/e

siesta: iscf   Eharris(eV)      E_KS(eV)   FreeEng(eV)   dDmax  Ef(eV)
siesta:    1     -468.2334     -468.2334     -468.2334  0.0001 -1.1707

siesta: E_KS(eV) =             -468.2334

siesta: Atomic forces (eV/Ang):
----------------------------------------
   Tot   -0.064378   -0.464194   -0.053264
----------------------------------------
   Max    0.461613
   Res    0.156164    sqrt( Sum f_i^2 / 3N )
----------------------------------------
   Max    0.461613    constrained

Stress-tensor-Voigt (kbar):        0.02        0.03        0.09        0.09        0.05        0.03
(Free)E + p*V (eV/cell)     -468.2626
Target enthalpy (eV/cell)     -468.2334

siesta: Stress tensor (static) (eV/Ang**3):
         0.000044    0.000001   -0.000012
        -0.000000    0.000122   -0.000000
         0.000035   -0.000000    0.000075

siesta: Pressure (static):         -0.12909126  kBar

siesta: Stress tensor (total) (eV/Ang**3):
         0.000009    0.000060   -0.000029
         0.000059    0.000019    0.000031
         0.000018    0.000031    0.000059

siesta: Pressure (total):         -0.04685201  kBar

TDAP : Electric dipole (a.u.)  =    0.315590    0.008549   -0.415488
TDAP : Electric dipole (Debye) =    0.802150    0.021730   -1.056066
TDAP : Energy  :  -24.23 -12.52  -8.11  -6.18   2.05   4.24  10.67  12.36
TDAP : Partition :    2.00   2.00   2.00   2.00   0.00   0.00   0.00   0.00

siesta: Temp_ion =     300.000 K

* Maximum dynamic memory allocated =     4 MB

siesta:                 ==============================
                            Begin MD step =     25
                        ==============================

outcell: Unit cell vectors (Ang):
       10.000000    0.000000    0.000000
        0.000000   10.000000    0.000000
        0.000000    0.000000   10.000000

outcell: Cell vector modules (Ang)   :   10.000000   10.000000   10.000000
outcell: Cell angles (23,13,12) (deg):     90.0000     90.0000     90.0000
outcell: Cell volume (Ang**3)        :   1000.0000
New_DM. Step:    25
Re-using DM from previous geometry...
Extrapolating Density Matrix...

TDAP: Electric Field

TDAP: External EField    0.000000    0.000000    0.000000 Ry/Bohr/e

siesta: iscf   Eharris(eV)      E_KS(eV)   FreeEng(eV)   dDmax  Ef(eV)
siesta:    1     -468.2334     -468.2334     -468.2334  0.0001 -1.1707
siesta:    2     -468.2334     -468.2334     -468.2334  0.0000 -1.1707

siesta: E_KS(eV) =             -468.2334

siesta: Atomic forces (eV/Ang):
----------------------------------------
   Tot   -0.065709   -0.464084   -0.053310
----------------------------------------
   Max    0.461610
   Res    0.155228    sqrt( Sum f_i^2 / 3N )
----------------------------------------
   Max    0.461610    constrained

Stress-tensor-Voigt (kbar):        0.05        0.03        0.09        0.09        0.05        0.04
(Free)E + p*V (eV/cell)     -468.2695
Target enthalpy (eV/cell)     -468.2334

siesta: Stress tensor (static) (eV/Ang**3):
         0.000064    0.000001   -0.000021
        -0.000000    0.000122   -0.000000
         0.000041   -0.000000    0.000076

siesta: Pressure (static):         -0.14005480  kBar

siesta: Stress tensor (total) (eV/Ang**3):
         0.000030    0.000060   -0.000038
         0.000059    0.000019    0.000031
         0.000024    0.000031    0.000059

siesta: Pressure (total):         -0.05781555  kBar

TDAP : Electric dipole (a.u.)  =    0.313381    0.008553   -0.415691
TDAP : Electric dipole (Debye) =    0.796535    0.021739   -1.056582
TDAP : Energy  :  -24.22 -12.52  -8.11  -6.18   2.06   4.24  10.68  12.36
TDAP : Partition :    2.00   2.00   2.00   2.00   0.00   0.00   0.00   0.00

siesta: Temp_ion =     300.000 K

* Maximum dynamic memory allocated =     4 MB

siesta:                 ==============================
                            Begin MD step =     26
                        ==============================

outcell: Unit cell vectors (Ang):
       10.000000    0.000000    0.000000
        0.000000   10.000000    0.000000
        0.000000    0.000000   10.000000

outcell: Cell vector modules (Ang)   :   10.000000   10.000000   10.000000
outcell: Cell angles (23,13,12) (deg):     90.0000     90.0000     90.0000
outcell: Cell volume (Ang**3)        :   1000.0000
New_DM. Step:    26
Re-using DM from previous geometry...
Extrapolating Density Matrix...

TDAP: Electric Field

TDAP: External EField    0.000000    0.000000    0.000000 Ry/Bohr/e

[...]
(Free)E + p*V (eV/cell)     -468.2649
Target enthalpy (eV/cell)     -468.2348

siesta: Stress tensor (static) (eV/Ang**3):
         0.000031    0.000001   -0.000001
         0.000000    0.000123   -0.000000
         0.000022   -0.000000    0.000091

siesta: Pressure (static):         -0.13050323  kBar

siesta: Stress tensor (total) (eV/Ang**3):
        -0.000003    0.000060   -0.000018
         0.000059    0.000020    0.000031
         0.000005    0.000031    0.000074

siesta: Pressure (total):         -0.04826398  kBar

TDAP : Electric dipole (a.u.)  =    0.318198    0.008537   -0.414892
TDAP : Electric dipole (Debye) =    0.808779    0.021699   -1.054552
TDAP : Energy  :  -24.22 -12.52  -8.10  -6.17   2.06   4.24  10.67  12.36
TDAP : Partition :    2.00   2.00   2.00   2.00   0.00   0.00   0.00   0.00

siesta: Temp_ion =     300.000 K

* Maximum dynamic memory allocated =     4 MB

siesta:                 ==============================
                            Begin MD step =    496
                        ==============================

outcell: Unit cell vectors (Ang):
       10.000000    0.000000    0.000000
        0.000000   10.000000    0.000000
        0.000000    0.000000   10.000000

outcell: Cell vector modules (Ang)   :   10.000000   10.000000   10.000000
outcell: Cell angles (23,13,12) (deg):     90.0000     90.0000     90.0000
outcell: Cell volume (Ang**3)        :   1000.0000
New_DM. Step:   496
Re-using DM from previous geometry...
Extrapolating Density Matrix...

TDAP: Electric Field

TDAP: External EField    0.000000    0.000000    0.000000 Ry/Bohr/e

siesta: iscf   Eharris(eV)      E_KS(eV)   FreeEng(eV)   dDmax  Ef(eV)
siesta:    1     -468.2348     -468.2348     -468.2348  0.0000 -1.1707

siesta: E_KS(eV) =             -468.2348

siesta: Atomic forces (eV/Ang):
----------------------------------------
   Tot   -0.063662   -0.464376   -0.053723
----------------------------------------
   Max    0.460930
   Res    0.158393    sqrt( Sum f_i^2 / 3N )
----------------------------------------
   Max    0.460930    constrained

Stress-tensor-Voigt (kbar):       -0.01        0.03        0.13        0.10        0.05        0.02
(Free)E + p*V (eV/cell)     -468.2674
Target enthalpy (eV/cell)     -468.2348

siesta: Stress tensor (static) (eV/Ang**3):
         0.000030    0.000001    0.000002
         0.000000    0.000122   -0.000001
         0.000027   -0.000001    0.000099

siesta: Pressure (static):         -0.13448790  kBar

siesta: Stress tensor (total) (eV/Ang**3):
        -0.000004    0.000060   -0.000015
         0.000059    0.000019    0.000031
         0.000010    0.000031    0.000082

siesta: Pressure (total):         -0.05224865  kBar

TDAP : Electric dipole (a.u.)  =    0.316516    0.008576   -0.416913
TDAP : Electric dipole (Debye) =    0.804504    0.021799   -1.059687
TDAP : Energy  :  -24.22 -12.52  -8.10  -6.17   2.05   4.24  10.67  12.36
TDAP : Partition :    2.00   2.00   2.00   2.00   0.00   0.00   0.00   0.00

siesta: Temp_ion =     300.000 K

* Maximum dynamic memory allocated =     4 MB

siesta:                 ==============================
                            Begin MD step =    497
                        ==============================

outcell: Unit cell vectors (Ang):
       10.000000    0.000000    0.000000
        0.000000   10.000000    0.000000
        0.000000    0.000000   10.000000

outcell: Cell vector modules (Ang)   :   10.000000   10.000000   10.000000
outcell: Cell angles (23,13,12) (deg):     90.0000     90.0000     90.0000
outcell: Cell volume (Ang**3)        :   1000.0000
New_DM. Step:   497
Re-using DM from previous geometry...
Extrapolating Density Matrix...

TDAP: Electric Field

TDAP: External EField    0.000000    0.000000    0.000000 Ry/Bohr/e

siesta: iscf   Eharris(eV)      E_KS(eV)   FreeEng(eV)   dDmax  Ef(eV)
siesta:    1     -468.2348     -468.2348     -468.2348  0.0001 -1.1707

siesta: E_KS(eV) =             -468.2348

siesta: Atomic forces (eV/Ang):
----------------------------------------
   Tot   -0.063458   -0.464281   -0.053618
----------------------------------------
   Max    0.460740
   Res    0.158700    sqrt( Sum f_i^2 / 3N )
----------------------------------------
   Max    0.460740    constrained

Stress-tensor-Voigt (kbar):       -0.01        0.03        0.14        0.09        0.05        0.03
(Free)E + p*V (eV/cell)     -468.2702
Target enthalpy (eV/cell)     -468.2348

siesta: Stress tensor (static) (eV/Ang**3):
         0.000031    0.000000    0.000004
        -0.000000    0.000122   -0.000001
         0.000033   -0.000001    0.000107

siesta: Pressure (static):         -0.13884601  kBar

siesta: Stress tensor (total) (eV/Ang**3):
        -0.000003    0.000060   -0.000013
         0.000059    0.000019    0.000031
         0.000016    0.000031    0.000090

siesta: Pressure (total):         -0.05660676  kBar

TDAP : Electric dipole (a.u.)  =    0.314762    0.008620   -0.419153
TDAP : Electric dipole (Debye) =    0.800045    0.021911   -1.065381
TDAP : Energy  :  -24.22 -12.52  -8.10  -6.17   2.05   4.24  10.67  12.35
TDAP : Partition :    2.00   2.00   2.00   2.00   0.00   0.00   0.00   0.00

siesta: Temp_ion =     300.000 K

* Maximum dynamic memory allocated =     4 MB

siesta:                 ==============================
                            Begin MD step =    498
                        ==============================

outcell: Unit cell vectors (Ang):
       10.000000    0.000000    0.000000
        0.000000   10.000000    0.000000
        0.000000    0.000000   10.000000

outcell: Cell vector modules (Ang)   :   10.000000   10.000000   10.000000
outcell: Cell angles (23,13,12) (deg):     90.0000     90.0000     90.0000
outcell: Cell volume (Ang**3)        :   1000.0000
New_DM. Step:   498
Re-using DM from previous geometry...
Extrapolating Density Matrix...

TDAP: Electric Field

TDAP: External EField    0.000000    0.000000    0.000000 Ry/Bohr/e

siesta: iscf   Eharris(eV)      E_KS(eV)   FreeEng(eV)   dDmax  Ef(eV)
siesta:    1     -468.2348     -468.2348     -468.2348  0.0001 -1.1707
siesta:    2     -468.2348     -468.2348     -468.2348  0.0000 -1.1707

siesta: E_KS(eV) =             -468.2348

siesta: Atomic forces (eV/Ang):
----------------------------------------
   Tot   -0.063230   -0.464141   -0.053567
----------------------------------------
   Max    0.460539
   Res    0.158858    sqrt( Sum f_i^2 / 3N )
----------------------------------------
   Max    0.460539    constrained

Stress-tensor-Voigt (kbar):       -0.00        0.03        0.16        0.09        0.05        0.04
(Free)E + p*V (eV/cell)     -468.2733
Target enthalpy (eV/cell)     -468.2348

siesta: Stress tensor (static) (eV/Ang**3):
         0.000033    0.000000    0.000005
        -0.000000    0.000122   -0.000001
         0.000039   -0.000001    0.000114

siesta: Pressure (static):         -0.14380328  kBar

siesta: Stress tensor (total) (eV/Ang**3):
        -0.000001    0.000060   -0.000011
         0.000059    0.000019    0.000031
         0.000022    0.000031    0.000097

siesta: Pressure (total):         -0.06156403  kBar

TDAP : Electric dipole (a.u.)  =    0.313213    0.008661   -0.421193
TDAP : Electric dipole (Debye) =    0.796108    0.022014   -1.070567
TDAP : Energy  :  -24.22 -12.52  -8.10  -6.17   2.05   4.24  10.67  12.35
TDAP : Partition :    2.00   2.00   2.00   2.00   0.00   0.00   0.00   0.00

siesta: Temp_ion =     300.000 K

* Maximum dynamic memory allocated =     4 MB

siesta:                 ==============================
                            Begin MD step =    499
                        ==============================

outcell: Unit cell vectors (Ang):
       10.000000    0.000000    0.000000
        0.000000   10.000000    0.000000
        0.000000    0.000000   10.000000

outcell: Cell vector modules (Ang)   :   10.000000   10.000000   10.000000
outcell: Cell angles (23,13,12) (deg):     90.0000     90.0000     90.0000
outcell: Cell volume (Ang**3)        :   1000.0000
New_DM. Step:   499
Re-using DM from previous geometry...
Extrapolating Density Matrix...

TDAP: Electric Field

TDAP: External EField    0.000000    0.000000    0.000000 Ry/Bohr/e

siesta: iscf   Eharris(eV)      E_KS(eV)   FreeEng(eV)   dDmax  Ef(eV)
siesta:    1     -468.2348     -468.2348     -468.2348  0.0001 -1.1707

siesta: E_KS(eV) =             -468.2348

siesta: Atomic forces (eV/Ang):
----------------------------------------
   Tot   -0.063239   -0.464011   -0.053472
----------------------------------------
   Max    0.460431
   Res    0.158963    sqrt( Sum f_i^2 / 3N )
----------------------------------------
   Max    0.460431    constrained

Stress-tensor-Voigt (kbar):        0.00        0.03        0.16        0.09        0.05        0.04
(Free)E + p*V (eV/cell)     -468.2749
Target enthalpy (eV/cell)     -468.2348

siesta: Stress tensor (static) (eV/Ang**3):
         0.000036    0.000000    0.000008
        -0.000000    0.000122   -0.000001
         0.000043   -0.000001    0.000116

siesta: Pressure (static):         -0.14653008  kBar

siesta: Stress tensor (total) (eV/Ang**3):
         0.000002    0.000060   -0.000009
         0.000059    0.000019    0.000030
         0.000026    0.000031    0.000099

siesta: Pressure (total):         -0.06429083  kBar

TDAP : Electric dipole (a.u.)  =    0.312031    0.008693   -0.422810
TDAP : Electric dipole (Debye) =    0.793105    0.022096   -1.074677
TDAP : Energy  :  -24.22 -12.52  -8.10  -6.18   2.05   4.24  10.67  12.35
TDAP : Partition :    2.00   2.00   2.00   2.00   0.00   0.00   0.00   0.00

siesta: Temp_ion =     300.000 K

* Maximum dynamic memory allocated =     4 MB

siesta:                 ==============================
                            Begin MD step =    500
                        ==============================

outcell: Unit cell vectors (Ang):
       10.000000    0.000000    0.000000
        0.000000   10.000000    0.000000
        0.000000    0.000000   10.000000

outcell: Cell vector modules (Ang)   :   10.000000   10.000000   10.000000
outcell: Cell angles (23,13,12) (deg):     90.0000     90.0000     90.0000
outcell: Cell volume (Ang**3)        :   1000.0000
New_DM. Step:   500
Re-using DM from previous geometry...
Extrapolating Density Matrix...

TDAP: Electric Field

TDAP: External EField    0.000000    0.000000    0.000000 Ry/Bohr/e

siesta: iscf   Eharris(eV)      E_KS(eV)   FreeEng(eV)   dDmax  Ef(eV)
siesta:    1     -468.2348     -468.2348     -468.2348  0.0001 -1.1707

siesta: E_KS(eV) =             -468.2348

siesta: Atomic forces (eV/Ang):
----------------------------------------
   Tot   -0.063460   -0.463890   -0.053442
----------------------------------------
   Max    0.460284
   Res    0.159068    sqrt( Sum f_i^2 / 3N )
----------------------------------------
   Max    0.460284    constrained

Stress-tensor-Voigt (kbar):        0.01        0.03        0.16        0.09        0.05        0.04
(Free)E + p*V (eV/cell)     -468.2766
Target enthalpy (eV/cell)     -468.2348

siesta: Stress tensor (static) (eV/Ang**3):
         0.000041    0.000000    0.000013
        -0.000000    0.000122   -0.000001
         0.000042   -0.000001    0.000116

siesta: Pressure (static):         -0.14917175  kBar

siesta: Stress tensor (total) (eV/Ang**3):
         0.000006    0.000060   -0.000004
         0.000059    0.000019    0.000030
         0.000025    0.000031    0.000100

siesta: Pressure (total):         -0.06693250  kBar
Writing WFSX for COOP/COHP in siesta.TDWFSX

TDAP : Electric dipole (a.u.)  =    0.311359    0.008717   -0.423994
TDAP : Electric dipole (Debye) =    0.791396    0.022157   -1.077687
TDAP : Energy  :  -24.22 -12.52  -8.10  -6.17   2.05   4.24  10.67  12.35
TDAP : Partition :    2.00   2.00   2.00   2.00   0.00   0.00   0.00   0.00

siesta: Temp_ion =     300.000 K

* Maximum dynamic memory allocated =     4 MB

siesta: Program's energy decomposition (eV):
siesta: Ebs     =      -102.035330
siesta: Eions   =       815.854478
siesta: Ena     =       170.060777
siesta: Ekin    =       357.145660
siesta: Enl     =       -63.835050
siesta: DEna    =        -0.131367
siesta: DUscf   =         0.701596
siesta: DUext   =        -0.000000
siesta: Exc     =      -116.321961
siesta: eta*DQ  =         0.000000
siesta: Emadel  =         0.000000
siesta: Emeta   =         0.000000
siesta: Emolmec =         0.000000
siesta: Ekinion =         0.077553
siesta: Eharris =      -468.157275
siesta: Etot    =      -468.157270
siesta: FreeEng =      -468.157270

siesta: Final energy (eV):
siesta:  Band Struct. =    -102.035330
siesta:       Kinetic =     357.145660
siesta:       Hartree =     460.254546
siesta:    Ext. field =      -0.000000
siesta:   Exch.-corr. =    -116.321961
siesta:  Ion-electron =   -1228.748360
siesta:       Ion-ion =      59.435292
siesta:       Ekinion =       0.077553
siesta:         Total =    -468.157270

siesta: Atomic forces (eV/Ang):
siesta:      1    0.011427   -0.002491    0.029612
siesta:      2    0.027314   -0.001115   -0.031366
siesta:      3   -0.102202   -0.460284   -0.051688
siesta: ----------------------------------------
siesta:    Tot   -0.063460   -0.463890   -0.053442

siesta: Stress tensor (static) (eV/Ang**3):
siesta:     0.000041    0.000000    0.000013
siesta:    -0.000000    0.000122   -0.000001
siesta:     0.000042   -0.000001    0.000116

siesta: Cell volume =       1000.000000 Ang**3

siesta: Pressure (static):
siesta:                Solid            Molecule  Units
siesta:          -0.00000101         -0.00000100  Ry/Bohr**3
siesta:          -0.00009310         -0.00009210  eV/Ang**3
siesta:          -0.14917175         -0.14756168  kBar
(Free)E+ p_basis*V_orbitals  =        -467.689499
(Free)Eharris+ p_basis*V_orbitals  =        -467.689501

siesta: Electric dipole (a.u.)  =    0.311359    0.008717   -0.423994
siesta: Electric dipole (Debye) =    0.791396    0.022157   -1.077687

* Maximum dynamic memory allocated : Node    0 =     4 MB
* Maximum dynamic memory allocated : Node    1 =     4 MB
* Maximum dynamic memory allocated : Node    2 =     4 MB
* Maximum dynamic memory allocated : Node    3 =     4 MB
* Maximum dynamic memory allocated : Node    4 =     4 MB
* Maximum dynamic memory allocated : Node    5 =     4 MB
* Maximum dynamic memory allocated : Node    6 =     4 MB
* Maximum dynamic memory allocated : Node    7 =     4 MB
* Maximum dynamic memory allocated : Node    8 =     4 MB
* Maximum dynamic memory allocated : Node    9 =     4 MB

* Maximum memory occured during ranger                        

timer: CPU execution times:
timer:  Routine       Calls   Time/call    Tot.time        %
timer:  siesta            1     444.005     444.005   100.00
timer:  Setup             1       1.308       1.308     0.29
timer:  bands             1       0.001       0.001     0.00
timer:  writewave         1       0.003       0.003     0.00
timer:  KSV_init          1       0.001       0.001     0.00
timer:  IterMD          500       0.885     442.668    99.70
timer:  hsparse         500       0.000       0.099     0.02
timer:  overlap         500       0.001       0.473     0.11
timer:  IterSCF         699       0.310     216.902    48.85
timer:  kinefsm        1000       0.000       0.461     0.10
timer:  nlefsm         1000       0.012      11.950     2.69
timer:  DHSCF          1199       0.298     357.500    80.52
timer:  DHSCF1            1       0.119       0.119     0.03
timer:  DHSCF2            1       0.166       0.166     0.04
timer:  REORD         11992       0.000       4.916     1.11
timer:  POISON         1200       0.038      46.024    10.37
timer:  DHSCF3         1199       0.276     330.967    74.54
timer:  rhoofd         1199       0.008       9.538     2.15
timer:  cellXC         1199       0.173     207.328    46.69
timer:  vmat           1199       0.019      22.378     5.04
timer:  MolMec         1000       0.000       0.021     0.00
timer:  diagon           23       0.038       0.875     0.20
timer:  r-eigvec         23       0.038       0.866     0.20
timer:  r-buildHS       699       0.000       0.000     0.00
timer:  rdiag            23       0.038       0.865     0.19
timer:  rdiag1           23       0.004       0.084     0.02
timer:  rdiag2           23       0.013       0.296     0.07
timer:  rdiag3           23       0.020       0.449     0.10
timer:  rdiag4           23       0.001       0.021     0.00
timer:  r-buildD        699       0.000       0.005     0.00
timer:  DHSCF4          500       0.052      25.822     5.82
timer:  dfscf           500       0.046      23.214     5.23
timer:  overfsm         500       0.001       0.258     0.06
timer:  evolve          676       0.016      10.622     2.39
timer:  r-evolgg        676       0.000       0.000     0.00
timer:  zevolg.1        676       0.005       3.456     0.78
timer:  zevolg.2        676       0.001       0.354     0.08
timer:  zevolg.3        676       0.000       0.009     0.00
timer:  zevolg.4        676       0.006       4.301     0.97
timer:  zevolg.5        676       0.000       0.317     0.07
timer:  zevolg.6        676       0.000       0.019     0.00
timer:  optical           1       0.018       0.018     0.00
  

elaps: ELAPSED times:
elaps:  Routine       Calls   Time/call    Tot.time        %
elaps:  siesta            1      44.404      44.404   100.00
elaps:  Setup             1       0.130       0.130     0.29
elaps:  bands             1       0.001       0.001     0.00
elaps:  writewave         1       0.000       0.000     0.00
elaps:  KSV_init          1       0.000       0.000     0.00
elaps:  IterMD          500       0.089      44.270    99.70
elaps:  hsparse         500       0.000       0.006     0.01
elaps:  overlap         500       0.000       0.058     0.13
elaps:  IterSCF         699       0.031      21.737    48.95
elaps:  kinefsm        1000       0.000       0.061     0.14
elaps:  nlefsm         1000       0.001       1.209     2.72
elaps:  DHSCF          1199       0.029      34.218    77.06
elaps:  DHSCF1            1       0.012       0.012     0.03
elaps:  DHSCF2            1       0.017       0.017     0.04
elaps:  REORD         11992       0.000       0.563     1.27
elaps:  POISON         1200       0.004       4.609    10.38
elaps:  DHSCF3         1199       0.028      33.072    74.48
elaps:  rhoofd         1199       0.000       0.124     0.28
elaps:  cellXC         1199       0.017      20.680    46.57
elaps:  vmat           1199       0.002       2.199     4.95
elaps:  MolMec         1000       0.000       0.001     0.00
elaps:  diagon           23       0.004       0.087     0.20
elaps:  r-eigvec         23       0.004       0.087     0.20
elaps:  r-buildHS       699       0.000       0.000     0.00
elaps:  rdiag            23       0.004       0.087     0.20
elaps:  rdiag1           23       0.000       0.009     0.02
elaps:  rdiag2           23       0.001       0.031     0.07
elaps:  rdiag3           23       0.002       0.045     0.10
elaps:  rdiag4           23       0.000       0.001     0.00
elaps:  r-buildD        699       0.000       0.000     0.00
elaps:  DHSCF4          500       0.002       1.073     2.42
elaps:  dfscf           500       0.002       1.035     2.33
elaps:  overfsm         500       0.000       0.027     0.06
elaps:  evolve          676       0.002       1.061     2.39
elaps:  r-evolgg        676       0.000       0.000     0.00
elaps:  zevolg.1        676       0.000       0.321     0.72
elaps:  zevolg.2        676       0.000       0.047     0.11
elaps:  zevolg.3        676       0.000       0.001     0.00
elaps:  zevolg.4        676       0.001       0.428     0.96
elaps:  zevolg.5        676       0.000       0.040     0.09
elaps:  zevolg.6        676       0.000       0.003     0.01
elaps:  optical           1       0.000       0.000     0.00
  
>> End of run:   2-DEC-2020  20:46:32
