Siesta Version:                                        tdap-2.2.3, based on siesta-3.2-pl-5
Architecture  : x86_64-unknown-linux-gnu--unknown
Compiler flags: mpif90 -g -O2 -ffree-line-length-none
PARALLEL version

* Running on   10 nodes in parallel
>> Start of run:   2-DEC-2020  22:20:23

                           ***********************       
                           *  WELCOME TO SIESTA  *       
                           ***********************       

reinit: Reading from standard input
************************** Dump of input data file ****************************
#DFT
XC.functional GGA
XC.authors  PBE
SCFMustConverge T
#MD
SolutionMethod      evolve
MD.TypeOfRun        verlet
MD.FinalTimeStep    1500
TD.FinalTimeStep    1500
MD.LengthTimeStep     0.00 fs
TD.LengthTimeStep   0.01 fs
MD.InitialTemperature  300 k
%block kgrid_Monkhorst_Pack
1 0 0 0.0
0 1 0 0.0
0 0 1 0.0
%endblock kgrid_Monkhorst_Pack
AtomicCoordinatesFormat  Fractional
LatticeConstant  1.0  Ang
NumberOfAtoms    3
NumberOfSpecies  2
%block LatticeVectors
       10.0        0.0000000000         0.0000000000
       0.0         10.0                 0.0000000000
       0.00        0.00                 10.0
%endblock LatticeVectors
%block ChemicalSpeciesLabel
   1    1    H
   2    8    O
%endblock ChemicalSpeciesLabel
%block AtomicCoordinatesAndAtomicSpecies
    0.44820475    0.41355314    0.41547532   1       1  H
    0.57091037    0.41168595    0.50808773   1       2  H
    0.47461484    0.41168595    0.50808773   2       3  O
%endblock AtomicCoordinatesAndAtomicSpecies
TD.DeltaElectricField T
%block ExternalElectricField #E0
0.002 0.0 0.0  Ry/Bohr/e
%endblock ExternalElectricField
************************** End of input data file *****************************

reinit: -----------------------------------------------------------------------
reinit: System Name: 
reinit: -----------------------------------------------------------------------
reinit: System Label: siesta                                                      
reinit: -----------------------------------------------------------------------

initatom: Reading input for the pseudopotentials and atomic orbitals ----------
 Species number:            1  Label: H Atomic number:           1
 Species number:            2  Label: O Atomic number:           8
Ground state valence configuration:   1s01
Reading pseudopotential information in formatted form from H.psf

Valence configuration for pseudopotential generation:
1s( 1.00) rc: 1.25
2p( 0.00) rc: 1.25
3d( 0.00) rc: 1.25
4f( 0.00) rc: 1.25
Ground state valence configuration:   2s02  2p04
Reading pseudopotential information in formatted form from O.psf

Valence configuration for pseudopotential generation:
2s( 2.00) rc: 1.14
2p( 4.00) rc: 1.14
3d( 0.00) rc: 1.14
4f( 0.00) rc: 1.14
For H, standard SIESTA heuristics set lmxkb to 2
 (one more than the basis l, including polarization orbitals).
Use PS.lmax or PS.KBprojectors blocks to override.
For O, standard SIESTA heuristics set lmxkb to 3
 (one more than the basis l, including polarization orbitals).
Use PS.lmax or PS.KBprojectors blocks to override.

<basis_specs>
===============================================================================
H                    Z=   1    Mass=  1.0100        Charge= 0.17977+309
Lmxo=0 Lmxkb= 2    BasisType=split      Semic=F
L=0  Nsemic=0  Cnfigmx=1
          n=1  nzeta=2  polorb=1
            splnorm:   0.15000    
               vcte:    0.0000    
               rinn:    0.0000    
                rcs:    0.0000      0.0000    
            lambdas:    1.0000      1.0000    
-------------------------------------------------------------------------------
L=0  Nkbl=1  erefs: 0.17977+309
L=1  Nkbl=1  erefs: 0.17977+309
L=2  Nkbl=1  erefs: 0.17977+309
===============================================================================
</basis_specs>

atom: Called for H                     (Z =   1)

read_vps: Pseudopotential generation method:
read_vps: ATM3      Troullier-Martins                       
Total valence charge:    1.00000

xc_check: Exchange-correlation functional:
xc_check: GGA Perdew, Burke & Ernzerhof 1996
xc_check: WARNING: Pseudopotential generated with Ceperley-Alder functional
V l=0 = -2*Zval/r beyond r=  1.2343
V l=1 = -2*Zval/r beyond r=  1.2189
V l=2 = -2*Zval/r beyond r=  1.2189
All V_l potentials equal beyond r=  1.2343
This should be close to max(r_c) in ps generation
All pots = -2*Zval/r beyond r=  1.2343

VLOCAL1: 99.0% of the norm of Vloc inside     28.493 Ry
VLOCAL1: 99.9% of the norm of Vloc inside     64.935 Ry
atom: Maximum radius for 4*pi*r*r*local-pseudopot. charge    1.45251
atom: Maximum radius for r*vlocal+2*Zval:    1.21892
GHOST: No ghost state for L =  0
GHOST: No ghost state for L =  1
GHOST: No ghost state for L =  2

KBgen: Kleinman-Bylander projectors: 
   l= 0   rc=  1.364359   el= -0.488086   Ekb= -2.002077   kbcos= -0.347561
   l= 1   rc=  1.434438   el=  0.001075   Ekb= -0.501617   kbcos= -0.021754
   l= 2   rc=  1.470814   el=  0.002010   Ekb= -0.190607   kbcos= -0.002284

KBgen: Total number of  Kleinman-Bylander projectors:    9
atom: -------------------------------------------------------------------------

atom: SANKEY-TYPE ORBITALS:
atom: Selected multiple-zeta basis: split     

SPLIT: Orbitals with angular momentum L= 0

SPLIT: Basis orbitals for state 1s

SPLIT: PAO cut-off radius determined from an
SPLIT: energy shift=  0.020000 Ry

   izeta = 1
                 lambda =    1.000000
                     rc =    4.708991
                 energy =   -0.469191
                kinetic =    0.984891
    potential(screened) =   -1.454081
       potential(ionic) =   -1.971243

   izeta = 2
                 rmatch =    3.759707
              splitnorm =    0.150000
                 energy =   -0.351800
                kinetic =    1.584822
    potential(screened) =   -1.936622
       potential(ionic) =   -2.473950

POLgen: Perturbative polarization orbital with L=  1

POLgen: Polarization orbital for state 1s

   izeta = 1
                     rc =    4.708991
                 energy =    0.760113
                kinetic =    1.483507
    potential(screened) =   -0.723395
       potential(ionic) =   -1.207344
atom: Total number of Sankey-type orbitals:  5

atm_pop: Valence configuration (for local Pseudopot. screening):
 1s( 1.00)                                                            
Vna: chval, zval:    1.00000   1.00000

Vna:  Cut-off radius for the neutral-atom potential:   4.708991

atom: _________________________________________________________________________

<basis_specs>
===============================================================================
O                    Z=   8    Mass=  16.000        Charge= 0.17977+309
Lmxo=1 Lmxkb= 3    BasisType=split      Semic=F
L=0  Nsemic=0  Cnfigmx=2
          n=1  nzeta=2  polorb=0
            splnorm:   0.15000    
               vcte:    0.0000    
               rinn:    0.0000    
                rcs:    0.0000      0.0000    
            lambdas:    1.0000      1.0000    
L=1  Nsemic=0  Cnfigmx=2
          n=1  nzeta=2  polorb=1
            splnorm:   0.15000    
               vcte:    0.0000    
               rinn:    0.0000    
                rcs:    0.0000      0.0000    
            lambdas:    1.0000      1.0000    
-------------------------------------------------------------------------------
L=0  Nkbl=1  erefs: 0.17977+309
L=1  Nkbl=1  erefs: 0.17977+309
L=2  Nkbl=1  erefs: 0.17977+309
L=3  Nkbl=1  erefs: 0.17977+309
===============================================================================
</basis_specs>

atom: Called for O                     (Z =   8)

read_vps: Pseudopotential generation method:
read_vps: ATM3      Troullier-Martins                       
Total valence charge:    6.00000

xc_check: Exchange-correlation functional:
xc_check: GGA Perdew, Burke & Ernzerhof 1996
xc_check: WARNING: Pseudopotential generated with Ceperley-Alder functional
V l=0 = -2*Zval/r beyond r=  1.1278
V l=1 = -2*Zval/r beyond r=  1.1278
V l=2 = -2*Zval/r beyond r=  1.1278
V l=3 = -2*Zval/r beyond r=  1.1138
All V_l potentials equal beyond r=  1.1278
This should be close to max(r_c) in ps generation
All pots = -2*Zval/r beyond r=  1.1278

VLOCAL1: 99.0% of the norm of Vloc inside     34.126 Ry
VLOCAL1: 99.9% of the norm of Vloc inside     77.774 Ry
atom: Maximum radius for 4*pi*r*r*local-pseudopot. charge    1.37759
atom: Maximum radius for r*vlocal+2*Zval:    1.18566
GHOST: No ghost state for L =  0
GHOST: No ghost state for L =  1
GHOST: No ghost state for L =  2
GHOST: No ghost state for L =  3

KBgen: Kleinman-Bylander projectors: 
   l= 0   rc=  1.294105   el= -1.764717   Ekb=  9.120606   kbcos=  0.329038
   l= 1   rc=  1.294105   el= -0.698441   Ekb= -8.119783   kbcos= -0.400859
   l= 2   rc=  1.448233   el=  0.002031   Ekb= -2.039067   kbcos= -0.003490
   l= 3   rc=  1.561052   el=  0.003153   Ekb= -0.799361   kbcos= -0.000345

KBgen: Total number of  Kleinman-Bylander projectors:   16
atom: -------------------------------------------------------------------------

atom: SANKEY-TYPE ORBITALS:
atom: Selected multiple-zeta basis: split     

SPLIT: Orbitals with angular momentum L= 0

SPLIT: Basis orbitals for state 2s

SPLIT: PAO cut-off radius determined from an
SPLIT: energy shift=  0.020000 Ry

   izeta = 1
                 lambda =    1.000000
                     rc =    3.305093
                 energy =   -1.747165
                kinetic =    1.636523
    potential(screened) =   -3.383688
       potential(ionic) =  -11.346558

   izeta = 2
                 rmatch =    2.479194
              splitnorm =    0.150000
                 energy =   -1.484948
                kinetic =    2.492446
    potential(screened) =   -3.977393
       potential(ionic) =  -12.521955

SPLIT: Orbitals with angular momentum L= 1

SPLIT: Basis orbitals for state 2p

SPLIT: PAO cut-off radius determined from an
SPLIT: energy shift=  0.020000 Ry

   izeta = 1
                 lambda =    1.000000
                     rc =    3.840021
                 energy =   -0.679240
                kinetic =    5.142096
    potential(screened) =   -5.821336
       potential(ionic) =  -13.650628

   izeta = 2
                 rmatch =    2.479194
              splitnorm =    0.150000
                 energy =   -0.370047
                kinetic =    7.736199
    potential(screened) =   -8.106246
       potential(ionic) =  -16.831468

POLgen: Perturbative polarization orbital with L=  2

POLgen: Polarization orbital for state 2p

   izeta = 1
                     rc =    3.840021
                 energy =    2.519349
                kinetic =    4.956526
    potential(screened) =   -2.437177
       potential(ionic) =   -8.829757
atom: Total number of Sankey-type orbitals: 13

atm_pop: Valence configuration (for local Pseudopot. screening):
 2s( 2.00)                                                            
 2p( 4.00)                                                            
Vna: chval, zval:    6.00000   6.00000

Vna:  Cut-off radius for the neutral-atom potential:   3.840021

atom: _________________________________________________________________________

prinput: Basis input ----------------------------------------------------------

PAO.BasisType split     

%block ChemicalSpeciesLabel
    1    1 H                       # Species index, atomic number, species label
    2    8 O                       # Species index, atomic number, species label
%endblock ChemicalSpeciesLabel

%block PAO.Basis                 # Define Basis set
H                     1                    # Species label, number of l-shells
 n=1   0   2 P   1                   # n, l, Nzeta, Polarization, NzetaPol
   4.709      3.760   
   1.000      1.000   
O                     2                    # Species label, number of l-shells
 n=2   0   2                         # n, l, Nzeta 
   3.305      2.479   
   1.000      1.000   
 n=2   1   2 P   1                   # n, l, Nzeta, Polarization, NzetaPol
   3.840      2.479   
   1.000      1.000   
%endblock PAO.Basis

prinput: ----------------------------------------------------------------------

coor:   Atomic-coordinates input format  =     Fractional

siesta: Atomic coordinates (Bohr) and species
siesta:      8.46985   7.81502   7.85135  1        1
siesta:     10.78865   7.77974   9.60147  1        2
siesta:      8.96892   7.77974   9.60147  2        3

siesta: System type = molecule  

initatomlists: Number of atoms, orbitals, and projectors:      3    23    34

siesta: ******************** Simulation parameters ****************************
siesta:
siesta: The following are some of the parameters of the simulation.
siesta: A complete list of the parameters used, including default values,
siesta: can be found in file out.fdf
siesta:
redata: Non-Collinear-spin run           =     F
redata: SpinPolarized (Up/Down) run      =     F
redata: Number of spin components        =     1
redata: Long output                      =     F
redata: Number of Atomic Species         =        2
redata: Charge density info will appear in .RHO file
redata: Write Mulliken Pop.              =     NO
redata: Mesh Cutoff                      =   100.0000  Ry
redata: Net charge of the system         =     0.0000 |e|
redata: Max. number of SCF Iter          =       50
redata: SCF convergence failure will abort job
redata: Mixing is linear
redata: Mix DM in first SCF step ?       =     F
redata: Write Pulay info on disk?        =     F
redata: Discard 1st Pulay DM after  kick =     F
redata: New DM Mixing Weight             =     0.2500
redata: New DM Occupancy tolerance       = 0.000000000001
redata: No kicks to SCF
redata: DM Mixing Weight for Kicks       =     0.5000
redata: DM Tolerance for SCF             =     0.000100
redata: Require Energy convergence for SCF =     F
redata: DM Energy tolerance for SCF      =     0.000100 eV
redata: Require Harris convergence for SCF =     F
redata: DM Harris energy tolerance for SCF =     0.000100 eV
redata: Using Saved Data (generic)   =     F
redata: Use continuation files for DM    =     F
redata: Neglect nonoverlap interactions  =     F
redata: =================Using evolve method to do TDDFT work=================
redata: TDAP: The Final Step of the TDDFT calculation       =     1500
redata: TDAP: The Step length of the TDDFT calculation      =     0.0100fs
redata: TDAP: Whether to read WaveFunction from file        =	    F
redata: TDAP: Write WaveFunction every   1000 steps
 redata: TDAP: The number of promoted electrons              =    0.0000000000000000     
 redata: TDAP: Electrons get promoted From Band              =            0
 redata: TDAP: Electrons get promoted to Band                =            0
redata: TDAP: The number of empty bands to consider         =        5
redata: TDAP: zmin of efield           = 0.000000000000
redata: TDAP: zmax of efield              = 1.000000000000
redata: TDAP: Whether to do FSSH      =	    F
redata: TDAP: How many steps per dephase     =	       0
redata: =======================================================================
redata: Electronic Temperature           =     0.0019  Ry
redata: Fix the spin of the system       =     F
redata: Dynamics option                  =     Verlet MD run
redata: Initial MD time step             =        1
redata:   Final MD time step             =     1500
redata: Length of MD time step           =     0.0000  fs
redata: Initial Temperature of MD run    =   300.0000  K
redata: Perform a MD quench              =     F
redata: ***********************************************************************
Total number of electrons:     8.000000
Total ionic charge:     8.000000

* ProcessorY, Blocksize:    2   1

 Kpoints in:            1 . Kpoints trimmed:            1

siesta: k-grid: Number of k-points =     1
siesta: k-grid: Cutoff (effective) =     5.000 Ang
siesta: k-grid: Supercell and displacements
siesta: k-grid:    1   0   0      0.000
siesta: k-grid:    0   1   0      0.000
siesta: k-grid:    0   0   1      0.000

* Maximum dynamic memory allocated =     2 MB
 =================================================================================================
 ....................................-!$$$$Q$C!-..................................................
 ................................!$$$$$$$$$$$$$$$$Q$-.............................................
 .............................:$$$$$$$-.-$$$.$$$$$7$$$7...........................................
 ...........................>$$Q.$$$$$...$Q$.$$$$$!.-$$$-.........................................
 ...........................$$Q..$$$$$....!-.$$$$$!...$$$?........................................
 ...........................$$!..$$$$$.......$$$$$!...-Q$$$.......................................
 ...........................Q-...$$$$$.......$$$$$:....$$$$$......................................
 ................................$$$$$.......$$$$$!....7$$$Q-.......:$$$$-...............!$Q$$$$-.
 ................................$$$$$.......$$$$$!....!$$$$?.......$$$$$$......7$$$$$$:...$$$$$-.
 ................................$$$$$.......$$$$$!....-$$$$$......7$$$$$$O.......Q$$$$....C$$$$..
 ................................$$$$$.......$$$$$!....-$$$$$.....!$$:-$$$$C......$$$$Q--:$$Q$....
 ................................$$$$$.......$$$$$!....-$$$$$.....$$>..-$$$$:.....$$$$$...........
 ................................$$$$$.......$$$$$!....!$$$$7....$$$Q$$$$$$$$:....$$$$$...........
 ................................$$$$$.......$$$$$!....7$$$$-...!$$>.....$$$$$$$>$$$$$$?..........
 ................................$$$$$.......$$$$$:....$Q$$$....$$$.....$:........................
 ...................-??>.........$$$$$.......$$$$$!...-Q$$$....!$$Q$-.............................
 ..........>??...................$$$$$.......$$$$$!...$$Q$....C$-.................................
 ....!??..................:?....CQ$$$$:......$$$$$!.$$$$-...................77....................
 ?7?..........>....77...........$$$$$$$-....:$$$$$$$$$-..............!..........??>...............
 .........7...?!.........!.........-$Q$$....$$$$Q7........7.........?7...>.........:7?............
 ..........::........?......?.....7.............:?....-7......!........7...7..........?7-.........
 .....7...?........?......7....?!............!.....!>....7......-........?...?.........!7?........
 ....?...:.........7......!.....7.......-!:-.............?......?.............:.........>??.......
 ....7....>.........?................7?!-..->?>........-.......7.........7...>!..........??>......
 .....?...............?7....................................?7..............>?...........??.......
 .......?..................7??!......................>??!.................-?............??........
 .........77.......:............................................:.......7?............!7?.........
 .............??....................................................?7..............>?7...........
 ?.................!??!......................................7?7-................!?:..............
 ...!7......................!?????7!...........-!?7???7:......................7...................
 .........7-............................................................!7........................
 .................:-............................................>-................................
 .................................................................................................
 The following papers describe the method and practical implementation of the TDAP package:
 C. Lian, M.X. Guan, S.Q. Hu, J. Zhang, S. Meng. Photoexcitation in solids: First-principles quantum simulations by real-time TDDFT. Adv. Theo. Simul. 1, 1800055 (2018).
 W. Ma, J. Zhang, L. Yan, Y. Jiao, Y. Gao, S. Meng. Recent progresses in real-time local-basis implementation of time dependent density functional theory for electron-nucleus dynamics. Comp. Mater. Sci. 112, 478 (2016).
 J. Ren, E. Kaxiras, S. Meng. Optical properties of clusters and molecules from real-time time-dependent density functional theory using a self-consistent field. Molecular Physics 108, 1829 (2010).
 S. Meng, E. Kaxiras. Local basis-set and real time implementation of time-dependent density-functional theory for excited state dynamics simulations. J. Chem. Phys. 129, 054110 (2008).
 =================================================================================================

siesta:                 ==============================
                            Begin MD step =      1
                        ==============================

outcell: Unit cell vectors (Ang):
       10.000000    0.000000    0.000000
        0.000000   10.000000    0.000000
        0.000000    0.000000   10.000000

outcell: Cell vector modules (Ang)   :   10.000000   10.000000   10.000000
outcell: Cell angles (23,13,12) (deg):     90.0000     90.0000     90.0000
outcell: Cell volume (Ang**3)        :   1000.0000
New_DM. Step:     1
Initializing Density Matrix...

InitMesh: MESH =    64 x    64 x    64 =      262144
InitMesh: Mesh cutoff (required, used) =   100.000   113.204 Ry

efield: External electric field =    0.002000    0.000000    0.000000 Ry/Bohr/e

* Maximum dynamic memory allocated =     4 MB

stepf: Fermi-Dirac step function

fermid: Calculating for lowest-exciton excited state

stepf: Fermi-Dirac step function

siesta: Program's energy decomposition (eV):
siesta: Ebs     =      -117.832148
siesta: Eions   =       815.854478
siesta: Ena     =       170.060777
siesta: Ekin    =       351.179876
siesta: Enl     =       -55.092970
siesta: DEna    =        -0.000003
siesta: DUscf   =         0.000000
siesta: DUext   =        -0.000000
siesta: Exc     =      -113.802961
siesta: eta*DQ  =         0.000000
siesta: Emadel  =         0.000000
siesta: Emeta   =         0.000000
siesta: Emolmec =         0.000000
siesta: Ekinion =         0.000000
siesta: Eharris =      -468.731267
siesta: Etot    =      -463.509760
siesta: FreeEng =      -463.509760

siesta: iscf   Eharris(eV)      E_KS(eV)   FreeEng(eV)   dDmax  Ef(eV)
siesta:    1     -468.7313     -463.5098     -463.5098  1.3581 -2.8985
timer: Routine,Calls,Time,% = IterSCF        1       8.758  77.42
elaps: Routine,Calls,Wall,% = IterSCF        1       0.879  77.58
siesta:    2     -469.0413     -467.7760     -467.7760  0.1399  0.5577
siesta:    3     -468.3141     -467.9508     -467.9508  0.0323 -0.6758
siesta:    4     -468.2518     -468.0297     -468.0297  0.0120 -1.0154
siesta:    5     -468.2455     -468.0841     -468.0841  0.0142 -1.1079
siesta:    6     -468.2446     -468.1243     -468.1243  0.0119 -1.1301
siesta:    7     -468.2444     -468.1543     -468.1543  0.0091 -1.1331
siesta:    8     -468.2444     -468.1769     -468.1769  0.0067 -1.1317
siesta:    9     -468.2443     -468.1937     -468.1937  0.0049 -1.1298
siesta:   10     -468.2444     -468.2064     -468.2064  0.0036 -1.1284
siesta:   11     -468.2444     -468.2159     -468.2159  0.0026 -1.1274
siesta:   12     -468.2443     -468.2230     -468.2230  0.0019 -1.1268
siesta:   13     -468.2444     -468.2283     -468.2283  0.0014 -1.1265
siesta:   14     -468.2443     -468.2323     -468.2323  0.0011 -1.1262
siesta:   15     -468.2443     -468.2353     -468.2353  0.0008 -1.1261
siesta:   16     -468.2443     -468.2376     -468.2376  0.0006 -1.1260
siesta:   17     -468.2443     -468.2393     -468.2393  0.0004 -1.1260
siesta:   18     -468.2443     -468.2405     -468.2405  0.0003 -1.1260
siesta:   19     -468.2443     -468.2415     -468.2415  0.0002 -1.1260
siesta:   20     -468.2444     -468.2422     -468.2422  0.0002 -1.1259
siesta:   21     -468.2444     -468.2428     -468.2428  0.0001 -1.1259
siesta:   22     -468.2444     -468.2432     -468.2432  0.0001 -1.1259
siesta:   23     -468.2443     -468.2434     -468.2434  0.0001 -1.1259

siesta: E_KS(eV) =             -468.2437

siesta: E_KS - E_eggbox =      -468.2437

siesta: Atomic forces (eV/Ang):
----------------------------------------
   Tot   -0.064611   -0.464355   -0.053479
----------------------------------------
   Max    0.460976
   Res    0.158877    sqrt( Sum f_i^2 / 3N )
----------------------------------------
   Max    0.460976    constrained

Stress-tensor-Voigt (kbar):        0.05        0.05        0.13        0.10        0.05       -0.01
(Free)E + p*V (eV/cell)     -468.2894
Target enthalpy (eV/cell)     -468.2437

siesta: Stress tensor (static) (eV/Ang**3):
         0.000065    0.000000    0.000010
         0.000000    0.000131   -0.000000
         0.000010   -0.000000    0.000095

siesta: Pressure (static):         -0.15545405  kBar

siesta: Stress tensor (total) (eV/Ang**3):
         0.000031    0.000060   -0.000007
         0.000060    0.000028    0.000031
        -0.000007    0.000031    0.000078

siesta: Pressure (total):         -0.07321480  kBar

TDAP : Electric dipole (a.u.)  =    0.324702    0.008603   -0.418243
TDAP : Electric dipole (Debye) =    0.825312    0.021867   -1.063069
TDAP : Energy  :  -24.23 -12.53  -8.11  -6.18   2.04   4.25  10.67  12.34
TDAP : Partition :    2.00   2.00   2.00   2.00   0.00   0.00   0.00   0.00

siesta: Temp_ion =     300.000 K

* Maximum dynamic memory allocated =     4 MB

siesta:                 ==============================
                            Begin MD step =      2
                        ==============================

outcell: Unit cell vectors (Ang):
       10.000000    0.000000    0.000000
        0.000000   10.000000    0.000000
        0.000000    0.000000   10.000000

outcell: Cell vector modules (Ang)   :   10.000000   10.000000   10.000000
outcell: Cell angles (23,13,12) (deg):     90.0000     90.0000     90.0000
outcell: Cell volume (Ang**3)        :   1000.0000
New_DM. Step:     2
Re-using DM from previous geometry...
Re-using DM without extrapolation for lack of history

efield: External electric field =    0.002000    0.000000    0.000000 Ry/Bohr/e
TDAP: read envelope from 'TD.DeltaElectricField'

TDAP: Electric Field

TDAP: External EField    0.002000    0.000000    0.000000 Ry/Bohr/e

siesta: iscf   Eharris(eV)      E_KS(eV)   FreeEng(eV)   dDmax  Ef(eV)
siesta:    1     -468.2443     -468.2437     -468.2437  0.0000 -1.1259

siesta: E_KS(eV) =             -468.2443

siesta: Atomic forces (eV/Ang):
----------------------------------------
   Tot   -0.064621   -0.464377   -0.053514
----------------------------------------
   Max    0.460984
   Res    0.158856    sqrt( Sum f_i^2 / 3N )
----------------------------------------
   Max    0.460984    constrained

Stress-tensor-Voigt (kbar):        0.05        0.05        0.13        0.10        0.05       -0.01
(Free)E + p*V (eV/cell)     -468.2905
Target enthalpy (eV/cell)     -468.2443

siesta: Stress tensor (static) (eV/Ang**3):
         0.000066    0.000000    0.000010
         0.000000    0.000131   -0.000000
         0.000010   -0.000000    0.000095

siesta: Pressure (static):         -0.15611763  kBar

siesta: Stress tensor (total) (eV/Ang**3):
         0.000031    0.000060   -0.000007
         0.000060    0.000028    0.000031
        -0.000007    0.000031    0.000079

siesta: Pressure (total):         -0.07387838  kBar

TDAP : Electric dipole (a.u.)  =    0.324703    0.008603   -0.418244
TDAP : Electric dipole (Debye) =    0.825314    0.021867   -1.063072
TDAP : Energy  :  -24.23 -12.53  -8.11  -6.18   2.04   4.25  10.67  12.34
TDAP : Partition :    2.00   2.00   2.00   2.00   0.00   0.00   0.00   0.00

siesta: Temp_ion =     300.000 K

* Maximum dynamic memory allocated =     4 MB

siesta:                 ==============================
                            Begin MD step =      3
                        ==============================

outcell: Unit cell vectors (Ang):
       10.000000    0.000000    0.000000
        0.000000   10.000000    0.000000
        0.000000    0.000000   10.000000

outcell: Cell vector modules (Ang)   :   10.000000   10.000000   10.000000
outcell: Cell angles (23,13,12) (deg):     90.0000     90.0000     90.0000
outcell: Cell volume (Ang**3)        :   1000.0000
New_DM. Step:     3
Re-using DM from previous geometry...
Extrapolating Density Matrix...

TDAP: Electric Field

TDAP: External EField    0.000000    0.000000    0.000000 Ry/Bohr/e

siesta: iscf   Eharris(eV)      E_KS(eV)   FreeEng(eV)   dDmax  Ef(eV)
siesta:    1     -468.2355     -468.2362     -468.2362  0.0000 -1.1259

siesta: E_KS(eV) =             -468.2355

siesta: Atomic forces (eV/Ang):
----------------------------------------
   Tot   -0.064594   -0.464345   -0.053505
----------------------------------------
   Max    0.461280
   Res    0.156432    sqrt( Sum f_i^2 / 3N )
----------------------------------------
   Max    0.461280    constrained

Stress-tensor-Voigt (kbar):        0.06        0.03        0.09        0.10        0.05       -0.01
(Free)E + p*V (eV/cell)     -468.2735
Target enthalpy (eV/cell)     -468.2355

siesta: Stress tensor (static) (eV/Ang**3):
         0.000071    0.000000    0.000018
         0.000000    0.000122   -0.000000
         0.000010   -0.000000    0.000074

siesta: Pressure (static):         -0.14317372  kBar

siesta: Stress tensor (total) (eV/Ang**3):
         0.000037    0.000059    0.000001
         0.000060    0.000019    0.000031
        -0.000007    0.000031    0.000058

siesta: Pressure (total):         -0.06093448  kBar

TDAP : Electric dipole (a.u.)  =    0.324073    0.008603   -0.418238
TDAP : Electric dipole (Debye) =    0.823711    0.021867   -1.063056
TDAP : Energy  :  -24.21 -12.51  -8.09  -6.16   2.04   4.25  10.67  12.36
TDAP : Partition :    2.00   2.00   2.00   2.00   0.00   0.00   0.00   0.00

siesta: Temp_ion =     300.000 K

* Maximum dynamic memory allocated =     4 MB

siesta:                 ==============================
                            Begin MD step =      4
                        ==============================

outcell: Unit cell vectors (Ang):
       10.000000    0.000000    0.000000
        0.000000   10.000000    0.000000
        0.000000    0.000000   10.000000

outcell: Cell vector modules (Ang)   :   10.000000   10.000000   10.000000
outcell: Cell angles (23,13,12) (deg):     90.0000     90.0000     90.0000
outcell: Cell volume (Ang**3)        :   1000.0000
New_DM. Step:     4
Re-using DM from previous geometry...
Extrapolating Density Matrix...

TDAP: Electric Field

TDAP: External EField    0.000000    0.000000    0.000000 Ry/Bohr/e

siesta: iscf   Eharris(eV)      E_KS(eV)   FreeEng(eV)   dDmax  Ef(eV)
siesta:    1     -468.2355     -468.2355     -468.2355  0.0000 -1.1259

siesta: E_KS(eV) =             -468.2355

siesta: Atomic forces (eV/Ang):
----------------------------------------
   Tot   -0.064387   -0.464352   -0.053528
----------------------------------------
   Max    0.461235
   Res    0.156273    sqrt( Sum f_i^2 / 3N )
----------------------------------------
   Max    0.461235    constrained

Stress-tensor-Voigt (kbar):        0.06        0.03        0.10        0.10        0.05       -0.01
(Free)E + p*V (eV/cell)     -468.2739
Target enthalpy (eV/cell)     -468.2355

siesta: Stress tensor (static) (eV/Ang**3):
         0.000071    0.000000    0.000015
         0.000000    0.000122   -0.000000
         0.000010   -0.000000    0.000076

siesta: Pressure (static):         -0.14383493  kBar

siesta: Stress tensor (total) (eV/Ang**3):
         0.000036    0.000059   -0.000002
         0.000060    0.000019    0.000031
        -0.000007    0.000031    0.000060

siesta: Pressure (total):         -0.06159568  kBar

TDAP : Electric dipole (a.u.)  =    0.322438    0.008603   -0.418242
TDAP : Electric dipole (Debye) =    0.819556    0.021867   -1.063066
TDAP : Energy  :  -24.21 -12.51  -8.09  -6.16   2.04   4.25  10.67  12.36
TDAP : Partition :    2.00   2.00   2.00   2.00   0.00   0.00   0.00   0.00

siesta: Temp_ion =     300.000 K

* Maximum dynamic memory allocated =     4 MB

siesta:                 ==============================
                            Begin MD step =      5
                        ==============================

outcell: Unit cell vectors (Ang):
       10.000000    0.000000    0.000000
        0.000000   10.000000    0.000000
        0.000000    0.000000   10.000000

outcell: Cell vector modules (Ang)   :   10.000000   10.000000   10.000000
outcell: Cell angles (23,13,12) (deg):     90.0000     90.0000     90.0000
outcell: Cell volume (Ang**3)        :   1000.0000
New_DM. Step:     5
Re-using DM from previous geometry...
Extrapolating Density Matrix...

TDAP: Electric Field

TDAP: External EField    0.000000    0.000000    0.000000 Ry/Bohr/e

siesta: iscf   Eharris(eV)      E_KS(eV)   FreeEng(eV)   dDmax  Ef(eV)
siesta:    1     -468.2355     -468.2355     -468.2355  0.0000 -1.1259

siesta: E_KS(eV) =             -468.2355

siesta: Atomic forces (eV/Ang):
----------------------------------------
   Tot   -0.064019   -0.464403   -0.053472
----------------------------------------
   Max    0.461215
   Res    0.156018    sqrt( Sum f_i^2 / 3N )
----------------------------------------
   Max    0.461215    constrained

Stress-tensor-Voigt (kbar):        0.06        0.03        0.10        0.10        0.05       -0.01
(Free)E + p*V (eV/cell)     -468.2746
Target enthalpy (eV/cell)     -468.2355

siesta: Stress tensor (static) (eV/Ang**3):
         0.000070    0.000000    0.000011
         0.000000    0.000122   -0.000000
         0.000010   -0.000000    0.000079

siesta: Pressure (static):         -0.14494502  kBar

siesta: Stress tensor (total) (eV/Ang**3):
         0.000036    0.000060   -0.000006
         0.000060    0.000019    0.000031
        -0.000007    0.000031    0.000062

siesta: Pressure (total):         -0.06270577  kBar

TDAP : Electric dipole (a.u.)  =    0.320404    0.008605   -0.418320
TDAP : Electric dipole (Debye) =    0.814385    0.021871   -1.063263
TDAP : Energy  :  -24.21 -12.51  -8.09  -6.16   2.04   4.25  10.67  12.36
TDAP : Partition :    2.00   2.00   2.00   2.00   0.00   0.00   0.00   0.00

siesta: Temp_ion =     300.000 K

* Maximum dynamic memory allocated =     4 MB

siesta:                 ==============================
                            Begin MD step =      6
                        ==============================

outcell: Unit cell vectors (Ang):
       10.000000    0.000000    0.000000
        0.000000   10.000000    0.000000
        0.000000    0.000000   10.000000

outcell: Cell vector modules (Ang)   :   10.000000   10.000000   10.000000
outcell: Cell angles (23,13,12) (deg):     90.0000     90.0000     90.0000
outcell: Cell volume (Ang**3)        :   1000.0000
New_DM. Step:     6
Re-using DM from previous geometry...
Extrapolating Density Matrix...

TDAP: Electric Field

TDAP: External EField    0.000000    0.000000    0.000000 Ry/Bohr/e

siesta: iscf   Eharris(eV)      E_KS(eV)   FreeEng(eV)   dDmax  Ef(eV)
siesta:    1     -468.2355     -468.2355     -468.2355  0.0000 -1.1259

siesta: E_KS(eV) =             -468.2355

siesta: Atomic forces (eV/Ang):
----------------------------------------
   Tot   -0.063792   -0.464429   -0.053504
----------------------------------------
   Max    0.461181
   Res    0.155825    sqrt( Sum f_i^2 / 3N )
----------------------------------------
   Max    0.461181    constrained

Stress-tensor-Voigt (kbar):        0.06        0.03        0.10        0.10        0.05       -0.01
(Free)E + p*V (eV/cell)     -468.2752
Target enthalpy (eV/cell)     -468.2355

siesta: Stress tensor (static) (eV/Ang**3):
         0.000070    0.000000    0.000008
         0.000000    0.000122   -0.000000
         0.000010   -0.000000    0.000081

siesta: Pressure (static):         -0.14580703  kBar

siesta: Stress tensor (total) (eV/Ang**3):
         0.000035    0.000060   -0.000009
         0.000060    0.000019    0.000031
        -0.000007    0.000031    0.000064

siesta: Pressure (total):         -0.06356778  kBar

TDAP : Electric dipole (a.u.)  =    0.318487    0.008609   -0.418534
TDAP : Electric dipole (Debye) =    0.809515    0.021882   -1.063809
TDAP : Energy  :  -24.21 -12.51  -8.09  -6.16   2.04   4.25  10.67  12.36
TDAP : Partition :    2.00   2.00   2.00   2.00   0.00   0.00   0.00   0.00

siesta: Temp_ion =     300.000 K

* Maximum dynamic memory allocated =     4 MB

siesta:                 ==============================
                            Begin MD step =      7
                        ==============================

outcell: Unit cell vectors (Ang):
       10.000000    0.000000    0.000000
        0.000000   10.000000    0.000000
        0.000000    0.000000   10.000000

outcell: Cell vector modules (Ang)   :   10.000000   10.000000   10.000000
outcell: Cell angles (23,13,12) (deg):     90.0000     90.0000     90.0000
outcell: Cell volume (Ang**3)        :   1000.0000
New_DM. Step:     7
Re-using DM from previous geometry...
Extrapolating Density Matrix...

TDAP: Electric Field

TDAP: External EField    0.000000    0.000000    0.000000 Ry/Bohr/e

siesta: iscf   Eharris(eV)      E_KS(eV)   FreeEng(eV)   dDmax  Ef(eV)
siesta:    1     -468.2355     -468.2355     -468.2355  0.0001 -1.1259

siesta: E_KS(eV) =             -468.2355

siesta: Atomic forces (eV/Ang):
----------------------------------------
   Tot   -0.063820   -0.464478   -0.053633
----------------------------------------
   Max    0.461186
   Res    0.155825    sqrt( Sum f_i^2 / 3N )
----------------------------------------
   Max    0.461186    constrained

Stress-tensor-Voigt (kbar):        0.05        0.03        0.11        0.10        0.05       -0.01
(Free)E + p*V (eV/cell)     -468.2752
Target enthalpy (eV/cell)     -468.2355

siesta: Stress tensor (static) (eV/Ang**3):
         0.000068    0.000000    0.000006
         0.000000    0.000122   -0.000000
         0.000009   -0.000000    0.000083

siesta: Pressure (static):         -0.14588437  kBar

siesta: Stress tensor (total) (eV/Ang**3):
         0.000034    0.000060   -0.000011
         0.000060    0.000019    0.000031
        -0.000007    0.000031    0.000066

siesta: Pressure (total):         -0.06364512  kBar

TDAP : Electric dipole (a.u.)  =    0.316846    0.008617   -0.418897
TDAP : Electric dipole (Debye) =    0.805342    0.021901   -1.064729
TDAP : Energy  :  -24.21 -12.51  -8.09  -6.16   2.04   4.25  10.67  12.36
TDAP : Partition :    2.00   2.00   2.00   2.00   0.00   0.00   0.00   0.00

siesta: Temp_ion =     300.000 K

* Maximum dynamic memory allocated =     4 MB

siesta:                 ==============================
                            Begin MD step =      8
                        ==============================

outcell: Unit cell vectors (Ang):
       10.000000    0.000000    0.000000
        0.000000   10.000000    0.000000
        0.000000    0.000000   10.000000

outcell: Cell vector modules (Ang)   :   10.000000   10.000000   10.000000
outcell: Cell angles (23,13,12) (deg):     90.0000     90.0000     90.0000
outcell: Cell volume (Ang**3)        :   1000.0000
New_DM. Step:     8
Re-using DM from previous geometry...
Extrapolating Density Matrix...

TDAP: Electric Field

TDAP: External EField    0.000000    0.000000    0.000000 Ry/Bohr/e

siesta: iscf   Eharris(eV)      E_KS(eV)   FreeEng(eV)   dDmax  Ef(eV)
siesta:    1     -468.2355     -468.2355     -468.2355  0.0000 -1.1259

siesta: E_KS(eV) =             -468.2355

siesta: Atomic forces (eV/Ang):
----------------------------------------
   Tot   -0.064002   -0.464445   -0.053759
----------------------------------------
   Max    0.461114
   Res    0.155973    sqrt( Sum f_i^2 / 3N )
----------------------------------------
   Max    0.461114    constrained

Stress-tensor-Voigt (kbar):        0.05        0.03        0.11        0.10        0.05       -0.01
(Free)E + p*V (eV/cell)     -468.2746
Target enthalpy (eV/cell)     -468.2355

siesta: Stress tensor (static) (eV/Ang**3):
         0.000065    0.000000    0.000005
         0.000000    0.000122   -0.000000
         0.000009   -0.000000    0.000084

siesta: Pressure (static):         -0.14489416  kBar

siesta: Stress tensor (total) (eV/Ang**3):
         0.000030    0.000060   -0.000012
         0.000060    0.000019    0.000031
        -0.000007    0.000031    0.000067

siesta: Pressure (total):         -0.06265491  kBar

TDAP : Electric dipole (a.u.)  =    0.315417    0.008626   -0.419344
TDAP : Electric dipole (Debye) =    0.801711    0.021924   -1.065868
TDAP : Energy  :  -24.22 -12.51  -8.10  -6.17   2.04   4.25  10.67  12.36
TDAP : Partition :    2.00   2.00   2.00   2.00   0.00   0.00   0.00   0.00

siesta: Temp_ion =     300.000 K

* Maximum dynamic memory allocated =     4 MB

siesta:                 ==============================
                            Begin MD step =      9
                        ==============================

outcell: Unit cell vectors (Ang):
       10.000000    0.000000    0.000000
        0.000000   10.000000    0.000000
        0.000000    0.000000   10.000000

outcell: Cell vector modules (Ang)   :   10.000000   10.000000   10.000000
outcell: Cell angles (23,13,12) (deg):     90.0000     90.0000     90.0000
outcell: Cell volume (Ang**3)        :   1000.0000
New_DM. Step:     9
Re-using DM from previous geometry...
Extrapolating Density Matrix...

TDAP: Electric Field

TDAP: External EField    0.000000    0.000000    0.000000 Ry/Bohr/e

siesta: iscf   Eharris(eV)      E_KS(eV)   FreeEng(eV)   dDmax  Ef(eV)
siesta:    1     -468.2355     -468.2355     -468.2355  0.0001 -1.1259

siesta: E_KS(eV) =             -468.2355

siesta: Atomic forces (eV/Ang):
----------------------------------------
   Tot   -0.063954   -0.464355   -0.053659
----------------------------------------
   Max    0.461001
   Res    0.156176    sqrt( Sum f_i^2 / 3N )
----------------------------------------
   Max    0.461001    constrained

Stress-tensor-Voigt (kbar):        0.04        0.03        0.11        0.10        0.05       -0.01
(Free)E + p*V (eV/cell)     -468.2732
Target enthalpy (eV/cell)     -468.2355

siesta: Stress tensor (static) (eV/Ang**3):
         0.000059    0.000000    0.000004
         0.000000    0.000122   -0.000000
         0.000010   -0.000000    0.000085

siesta: Pressure (static):         -0.14268927  kBar

siesta: Stress tensor (total) (eV/Ang**3):
         0.000025    0.000060   -0.000013
         0.000060    0.000019    0.000031
        -0.000007    0.000031    0.000069

siesta: Pressure (total):         -0.06045002  kBar

TDAP : Electric dipole (a.u.)  =    0.314168    0.008635   -0.419792
TDAP : Electric dipole (Debye) =    0.798536    0.021947   -1.067004
TDAP : Energy  :  -24.22 -12.52  -8.10  -6.17   2.04   4.25  10.67  12.36
TDAP : Partition :    2.00   2.00   2.00   2.00   0.00   0.00   0.00   0.00

siesta: Temp_ion =     300.000 K

* Maximum dynamic memory allocated =     4 MB

siesta:                 ==============================
                            Begin MD step =     10
                        ==============================

outcell: Unit cell vectors (Ang):
       10.000000    0.000000    0.000000
        0.000000   10.000000    0.000000
        0.000000    0.000000   10.000000

outcell: Cell vector modules (Ang)   :   10.000000   10.000000   10.000000
outcell: Cell angles (23,13,12) (deg):     90.0000     90.0000     90.0000
outcell: Cell volume (Ang**3)        :   1000.0000
New_DM. Step:    10
Re-using DM from previous geometry...
Extrapolating Density Matrix...

TDAP: Electric Field

TDAP: External EField    0.000000    0.000000    0.000000 Ry/Bohr/e

siesta: iscf   Eharris(eV)      E_KS(eV)   FreeEng(eV)   dDmax  Ef(eV)
siesta:    1     -468.2355     -468.2355     -468.2355  0.0001 -1.1259

siesta: E_KS(eV) =             -468.2355

siesta: Atomic forces (eV/Ang):
----------------------------------------
   Tot   -0.063696   -0.464218   -0.053400
----------------------------------------
   Max    0.460854
   Res    0.156404    sqrt( Sum f_i^2 / 3N )
----------------------------------------
   Max    0.460854    constrained

Stress-tensor-Voigt (kbar):        0.03        0.03        0.11        0.10        0.05       -0.01
(Free)E + p*V (eV/cell)     -468.2713
Target enthalpy (eV/cell)     -468.2355

siesta: Stress tensor (static) (eV/Ang**3):
         0.000053    0.000001    0.000002
         0.000000    0.000122   -0.000000
         0.000011   -0.000000    0.000086

siesta: Pressure (static):         -0.13952865  kBar

siesta: Stress tensor (total) (eV/Ang**3):
         0.000018    0.000060   -0.000014
         0.000060    0.000019    0.000031
        -0.000006    0.000031    0.000070

siesta: Pressure (total):         -0.05728940  kBar

TDAP : Electric dipole (a.u.)  =    0.313187    0.008643   -0.420194
TDAP : Electric dipole (Debye) =    0.796043    0.021968   -1.068028
TDAP : Energy  :  -24.22 -12.52  -8.10  -6.17   2.04   4.25  10.67  12.36
TDAP : Partition :    2.00   2.00   2.00   2.00   0.00   0.00   0.00   0.00

siesta: Temp_ion =     300.000 K

* Maximum dynamic memory allocated =     4 MB

siesta:                 ==============================
                            Begin MD step =     11
                        ==============================

outcell: Unit cell vectors (Ang):
       10.000000    0.000000    0.000000
        0.000000   10.000000    0.000000
        0.000000    0.000000   10.000000

outcell: Cell vector modules (Ang)   :   10.000000   10.000000   10.000000
outcell: Cell angles (23,13,12) (deg):     90.0000     90.0000     90.0000
outcell: Cell volume (Ang**3)        :   1000.0000
New_DM. Step:    11
Re-using DM from previous geometry...
Extrapolating Density Matrix...

TDAP: Electric Field

TDAP: External EField    0.000000    0.000000    0.000000 Ry/Bohr/e

siesta: iscf   Eharris(eV)      E_KS(eV)   FreeEng(eV)   dDmax  Ef(eV)
siesta:    1     -468.2355     -468.2355     -468.2355  0.0000 -1.1259

siesta: E_KS(eV) =             -468.2355

siesta: Atomic forces (eV/Ang):
----------------------------------------
   Tot   -0.063468   -0.464134   -0.053216
----------------------------------------
   Max    0.460759
   Res    0.156763    sqrt( Sum f_i^2 / 3N )
----------------------------------------
   Max    0.460759    constrained

Stress-tensor-Voigt (kbar):        0.02        0.03        0.11        0.10        0.05       -0.01
(Free)E + p*V (eV/cell)     -468.2693
Target enthalpy (eV/cell)     -468.2355

siesta: Stress tensor (static) (eV/Ang**3):
         0.000046    0.000001    0.000002
         0.000000    0.000122   -0.000000
         0.000011   -0.000000    0.000087

siesta: Pressure (static):         -0.13639487  kBar

siesta: Stress tensor (total) (eV/Ang**3):
         0.000012    0.000060   -0.000015
         0.000060    0.000019    0.000031
        -0.000005    0.000031    0.000070

siesta: Pressure (total):         -0.05415562  kBar

TDAP : Electric dipole (a.u.)  =    0.312638    0.008650   -0.420560
TDAP : Electric dipole (Debye) =    0.794646    0.021987   -1.068958
TDAP : Energy  :  -24.22 -12.52  -8.10  -6.17   2.04   4.25  10.67  12.35
TDAP : Partition :    2.00   2.00   2.00   2.00   0.00   0.00   0.00   0.00

siesta: Temp_ion =     300.000 K

* Maximum dynamic memory allocated =     4 MB

siesta:                 ==============================
                            Begin MD step =     12
                        ==============================

outcell: Unit cell vectors (Ang):
       10.000000    0.000000    0.000000
        0.000000   10.000000    0.000000
        0.000000    0.000000   10.000000

outcell: Cell vector modules (Ang)   :   10.000000   10.000000   10.000000
outcell: Cell angles (23,13,12) (deg):     90.0000     90.0000     90.0000
outcell: Cell volume (Ang**3)        :   1000.0000
New_DM. Step:    12
Re-using DM from previous geometry...
Extrapolating Density Matrix...

TDAP: Electric Field

TDAP: External EField    0.000000    0.000000    0.000000 Ry/Bohr/e

siesta: iscf   Eharris(eV)      E_KS(eV)   FreeEng(eV)   dDmax  Ef(eV)
siesta:    1     -468.2355     -468.2355     -468.2355  0.0001 -1.1259

siesta: E_KS(eV) =             -468.2355

siesta: Atomic forces (eV/Ang):
----------------------------------------
   Tot   -0.063472   -0.464126   -0.053310
----------------------------------------
   Max    0.460714
   Res    0.157305    sqrt( Sum f_i^2 / 3N )
----------------------------------------
   Max    0.460714    constrained

Stress-tensor-Voigt (kbar):        0.01        0.03        0.12        0.10        0.05       -0.01
(Free)E + p*V (eV/cell)     -468.2681
Target enthalpy (eV/cell)     -468.2355

siesta: Stress tensor (static) (eV/Ang**3):
         0.000040    0.000001    0.000003
         0.000000    0.000122   -0.000000
         0.000012   -0.000000    0.000089

siesta: Pressure (static):         -0.13448612  kBar

siesta: Stress tensor (total) (eV/Ang**3):
         0.000006    0.000060   -0.000014
         0.000060    0.000019    0.000031
        -0.000005    0.000031    0.000072

siesta: Pressure (total):         -0.05224687  kBar

TDAP : Electric dipole (a.u.)  =    0.312664    0.008657   -0.420878
TDAP : Electric dipole (Debye) =    0.794714    0.022003   -1.069767
TDAP : Energy  :  -24.22 -12.52  -8.11  -6.17   2.04   4.25  10.67  12.35
TDAP : Partition :    2.00   2.00   2.00   2.00   0.00   0.00   0.00   0.00

siesta: Temp_ion =     300.000 K

* Maximum dynamic memory allocated =     4 MB

siesta:                 ==============================
                            Begin MD step =     13
                        ==============================

outcell: Unit cell vectors (Ang):
       10.000000    0.000000    0.000000
        0.000000   10.000000    0.000000
        0.000000    0.000000   10.000000

outcell: Cell vector modules (Ang)   :   10.000000   10.000000   10.000000
outcell: Cell angles (23,13,12) (deg):     90.0000     90.0000     90.0000
outcell: Cell volume (Ang**3)        :   1000.0000
New_DM. Step:    13
Re-using DM from previous geometry...
Extrapolating Density Matrix...

TDAP: Electric Field

TDAP: External EField    0.000000    0.000000    0.000000 Ry/Bohr/e

siesta: iscf   Eharris(eV)      E_KS(eV)   FreeEng(eV)   dDmax  Ef(eV)
siesta:    1     -468.2355     -468.2355     -468.2355  0.0000 -1.1259

siesta: E_KS(eV) =             -468.2355

siesta: Atomic forces (eV/Ang):
----------------------------------------
   Tot   -0.063484   -0.464200   -0.053513
----------------------------------------
   Max    0.460740
   Res    0.157938    sqrt( Sum f_i^2 / 3N )
----------------------------------------
   Max    0.460740    constrained

Stress-tensor-Voigt (kbar):        0.00        0.03        0.12        0.10        0.05       -0.01
(Free)E + p*V (eV/cell)     -468.2679
Target enthalpy (eV/cell)     -468.2355

siesta: Stress tensor (static) (eV/Ang**3):
         0.000037    0.000000    0.000005
         0.000000    0.000122   -0.000001
         0.000013   -0.000001    0.000091

siesta: Pressure (static):         -0.13408347  kBar

siesta: Stress tensor (total) (eV/Ang**3):
         0.000003    0.000060   -0.000012
         0.000060    0.000019    0.000031
        -0.000004    0.000031    0.000075

siesta: Pressure (total):         -0.05184422  kBar

TDAP : Electric dipole (a.u.)  =    0.313263    0.008660   -0.421068
TDAP : Electric dipole (Debye) =    0.796236    0.022012   -1.070249
TDAP : Energy  :  -24.22 -12.52  -8.10  -6.17   2.04   4.25  10.67  12.35
TDAP : Partition :    2.00   2.00   2.00   2.00   0.00   0.00   0.00   0.00

siesta: Temp_ion =     300.000 K

* Maximum dynamic memory allocated =     4 MB

siesta:                 ==============================
                            Begin MD step =     14
                        ==============================

outcell: Unit cell vectors (Ang):
       10.000000    0.000000    0.000000
        0.000000   10.000000    0.000000
        0.000000    0.000000   10.000000

outcell: Cell vector modules (Ang)   :   10.000000   10.000000   10.000000
outcell: Cell angles (23,13,12) (deg):     90.0000     90.0000     90.0000
outcell: Cell volume (Ang**3)        :   1000.0000
New_DM. Step:    14
Re-using DM from previous geometry...
Extrapolating Density Matrix...

TDAP: Electric Field

TDAP: External EField    0.000000    0.000000    0.000000 Ry/Bohr/e

siesta: iscf   Eharris(eV)      E_KS(eV)   FreeEng(eV)   dDmax  Ef(eV)
siesta:    1     -468.2355     -468.2355     -468.2355  0.0000 -1.1259

siesta: E_KS(eV) =             -468.2355

siesta: Atomic forces (eV/Ang):
----------------------------------------
   Tot   -0.063358   -0.464326   -0.053530
----------------------------------------
   Max    0.460833
   Res    0.158534    sqrt( Sum f_i^2 / 3N )
----------------------------------------
   Max    0.460833    constrained

Stress-tensor-Voigt (kbar):        0.00        0.03        0.12        0.10        0.05       -0.00
(Free)E + p*V (eV/cell)     -468.2680
Target enthalpy (eV/cell)     -468.2355

siesta: Stress tensor (static) (eV/Ang**3):
         0.000036    0.000000    0.000009
         0.000000    0.000122   -0.000001
         0.000014   -0.000001    0.000093

siesta: Pressure (static):         -0.13434721  kBar

siesta: Stress tensor (total) (eV/Ang**3):
         0.000002    0.000060   -0.000008
         0.000060    0.000019    0.000031
        -0.000003    0.000031    0.000077

siesta: Pressure (total):         -0.05210797  kBar

TDAP : Electric dipole (a.u.)  =    0.314199    0.008659   -0.421033
TDAP : Electric dipole (Debye) =    0.798614    0.022010   -1.070159
TDAP : Energy  :  -24.22 -12.52  -8.10  -6.17   2.04   4.25  10.67  12.35
TDAP : Partition :    2.00   2.00   2.00   2.00   0.00   0.00   0.00   0.00

siesta: Temp_ion =     300.000 K

* Maximum dynamic memory allocated =     4 MB

siesta:                 ==============================
                            Begin MD step =     15
                        ==============================

outcell: Unit cell vectors (Ang):
       10.000000    0.000000    0.000000
        0.000000   10.000000    0.000000
        0.000000    0.000000   10.000000

outcell: Cell vector modules (Ang)   :   10.000000   10.000000   10.000000
outcell: Cell angles (23,13,12) (deg):     90.0000     90.0000     90.0000
outcell: Cell volume (Ang**3)        :   1000.0000
New_DM. Step:    15
Re-using DM from previous geometry...
Extrapolating Density Matrix...

TDAP: Electric Field

TDAP: External EField    0.000000    0.000000    0.000000 Ry/Bohr/e

siesta: iscf   Eharris(eV)      E_KS(eV)   FreeEng(eV)   dDmax  Ef(eV)
siesta:    1     -468.2355     -468.2355     -468.2355  0.0000 -1.1259

siesta: E_KS(eV) =             -468.2355

siesta: Atomic forces (eV/Ang):
----------------------------------------
   Tot   -0.063210   -0.464543   -0.053494
----------------------------------------
   Max    0.461041
   Res    0.159121    sqrt( Sum f_i^2 / 3N )
----------------------------------------
   Max    0.461041    constrained

Stress-tensor-Voigt (kbar):        0.00        0.03        0.12        0.10        0.05       -0.00
(Free)E + p*V (eV/cell)     -468.2681
Target enthalpy (eV/cell)     -468.2355

siesta: Stress tensor (static) (eV/Ang**3):
         0.000036    0.000000    0.000013
         0.000000    0.000122   -0.000001
         0.000014   -0.000001    0.000093

siesta: Pressure (static):         -0.13448707  kBar

siesta: Stress tensor (total) (eV/Ang**3):
         0.000002    0.000060   -0.000003
         0.000060    0.000019    0.000031
        -0.000003    0.000031    0.000077

siesta: Pressure (total):         -0.05224783  kBar

TDAP : Electric dipole (a.u.)  =    0.315129    0.008654   -0.420757
TDAP : Electric dipole (Debye) =    0.800978    0.021996   -1.069458
TDAP : Energy  :  -24.22 -12.52  -8.09  -6.17   2.04   4.25  10.67  12.36
TDAP : Partition :    2.00   2.00   2.00   2.00   0.00   0.00   0.00   0.00

siesta: Temp_ion =     300.000 K

* Maximum dynamic memory allocated =     4 MB

siesta:                 ==============================
                            Begin MD step =     16
                        ==============================

outcell: Unit cell vectors (Ang):
       10.000000    0.000000    0.000000
        0.000000   10.000000    0.000000
        0.000000    0.000000   10.000000

outcell: Cell vector modules (Ang)   :   10.000000   10.000000   10.000000
outcell: Cell angles (23,13,12) (deg):     90.0000     90.0000     90.0000
outcell: Cell volume (Ang**3)        :   1000.0000
New_DM. Step:    16
Re-using DM from previous geometry...
Extrapolating Density Matrix...

TDAP: Electric Field

TDAP: External EField    0.000000    0.000000    0.000000 Ry/Bohr/e

siesta: iscf   Eharris(eV)      E_KS(eV)   FreeEng(eV)   dDmax  Ef(eV)
siesta:    1     -468.2355     -468.2355     -468.2355  0.0000 -1.1259

siesta: E_KS(eV) =             -468.2355

siesta: Atomic forces (eV/Ang):
----------------------------------------
   Tot   -0.063132   -0.464652   -0.053424
----------------------------------------
   Max    0.461139
   Res    0.159685    sqrt( Sum f_i^2 / 3N )
----------------------------------------
   Max    0.461139    constrained

Stress-tensor-Voigt (kbar):        0.00        0.03        0.12        0.10        0.05       -0.01
(Free)E + p*V (eV/cell)     -468.2682
Target enthalpy (eV/cell)     -468.2355

siesta: Stress tensor (static) (eV/Ang**3):
         0.000036    0.000000    0.000018
         0.000000    0.000122   -0.000001
         0.000013   -0.000001    0.000093

siesta: Pressure (static):         -0.13459879  kBar

siesta: Stress tensor (total) (eV/Ang**3):
         0.000002    0.000059    0.000001
         0.000060    0.000020    0.000031
        -0.000004    0.000031    0.000076

siesta: Pressure (total):         -0.05235954  kBar

TDAP : Electric dipole (a.u.)  =    0.315868    0.008645   -0.420331
TDAP : Electric dipole (Debye) =    0.802858    0.021975   -1.068376
TDAP : Energy  :  -24.21 -12.51  -8.09  -6.16   2.04   4.25  10.67  12.36
TDAP : Partition :    2.00   2.00   2.00   2.00   0.00   0.00   0.00   0.00

siesta: Temp_ion =     300.000 K

* Maximum dynamic memory allocated =     4 MB

siesta:                 ==============================
                            Begin MD step =     17
                        ==============================

outcell: Unit cell vectors (Ang):
       10.000000    0.000000    0.000000
        0.000000   10.000000    0.000000
        0.000000    0.000000   10.000000

outcell: Cell vector modules (Ang)   :   10.000000   10.000000   10.000000
outcell: Cell angles (23,13,12) (deg):     90.0000     90.0000     90.0000
outcell: Cell volume (Ang**3)        :   1000.0000
New_DM. Step:    17
Re-using DM from previous geometry...
Extrapolating Density Matrix...

TDAP: Electric Field

TDAP: External EField    0.000000    0.000000    0.000000 Ry/Bohr/e

siesta: iscf   Eharris(eV)      E_KS(eV)   FreeEng(eV)   dDmax  Ef(eV)
siesta:    1     -468.2355     -468.2355     -468.2355  0.0000 -1.1259

siesta: E_KS(eV) =             -468.2355

siesta: Atomic forces (eV/Ang):
----------------------------------------
   Tot   -0.063057   -0.464697   -0.053429
----------------------------------------
   Max    0.461158
   Res    0.160165    sqrt( Sum f_i^2 / 3N )
----------------------------------------
   Max    0.461158    constrained

Stress-tensor-Voigt (kbar):        0.00        0.03        0.12        0.10        0.05       -0.01
(Free)E + p*V (eV/cell)     -468.2683
Target enthalpy (eV/cell)     -468.2355

siesta: Stress tensor (static) (eV/Ang**3):
         0.000037    0.000000    0.000022
         0.000000    0.000123   -0.000001
         0.000011   -0.000001    0.000093

siesta: Pressure (static):         -0.13470652  kBar

siesta: Stress tensor (total) (eV/Ang**3):
         0.000003    0.000059    0.000005
         0.000060    0.000020    0.000031
        -0.000005    0.000031    0.000076

siesta: Pressure (total):         -0.05246727  kBar

TDAP : Electric dipole (a.u.)  =    0.316493    0.008636   -0.419875
TDAP : Electric dipole (Debye) =    0.804445    0.021951   -1.067217
TDAP : Energy  :  -24.21 -12.51  -8.09  -6.16   2.04   4.25  10.67  12.36
TDAP : Partition :    2.00   2.00   2.00   2.00   0.00   0.00   0.00   0.00

siesta: Temp_ion =     300.000 K

* Maximum dynamic memory allocated =     4 MB

siesta:                 ==============================
                            Begin MD step =     18
                        ==============================

outcell: Unit cell vectors (Ang):
       10.000000    0.000000    0.000000
        0.000000   10.000000    0.000000
        0.000000    0.000000   10.000000

outcell: Cell vector modules (Ang)   :   10.000000   10.000000   10.000000
outcell: Cell angles (23,13,12) (deg):     90.0000     90.0000     90.0000
outcell: Cell volume (Ang**3)        :   1000.0000
New_DM. Step:    18
Re-using DM from previous geometry...
Extrapolating Density Matrix...

TDAP: Electric Field

TDAP: External EField    0.000000    0.000000    0.000000 Ry/Bohr/e

siesta: iscf   Eharris(eV)      E_KS(eV)   FreeEng(eV)   dDmax  Ef(eV)
siesta:    1     -468.2355     -468.2355     -468.2355  0.0000 -1.1259

siesta: E_KS(eV) =             -468.2355

siesta: Atomic forces (eV/Ang):
----------------------------------------
   Tot   -0.062933   -0.464754   -0.053447
----------------------------------------
   Max    0.461194
   Res    0.160425    sqrt( Sum f_i^2 / 3N )
----------------------------------------
   Max    0.461194    constrained

Stress-tensor-Voigt (kbar):        0.00        0.03        0.12        0.10        0.05       -0.01
(Free)E + p*V (eV/cell)     -468.2681
Target enthalpy (eV/cell)     -468.2355

siesta: Stress tensor (static) (eV/Ang**3):
         0.000036    0.000000    0.000023
         0.000000    0.000123   -0.000001
         0.000010   -0.000001    0.000093

siesta: Pressure (static):         -0.13441300  kBar

siesta: Stress tensor (total) (eV/Ang**3):
         0.000002    0.000059    0.000006
         0.000060    0.000020    0.000031
        -0.000006    0.000031    0.000076

siesta: Pressure (total):         -0.05217375  kBar

TDAP : Electric dipole (a.u.)  =    0.317125    0.008628   -0.419464
TDAP : Electric dipole (Debye) =    0.806052    0.021930   -1.066171
TDAP : Energy  :  -24.21 -12.51  -8.09  -6.16   2.04   4.25  10.67  12.36
TDAP : Partition :    2.00   2.00   2.00   2.00   0.00   0.00   0.00   0.00

siesta: Temp_ion =     300.000 K

* Maximum dynamic memory allocated =     4 MB

siesta:                 ==============================
                            Begin MD step =     19
                        ==============================

outcell: Unit cell vectors (Ang):
       10.000000    0.000000    0.000000
        0.000000   10.000000    0.000000
        0.000000    0.000000   10.000000

outcell: Cell vector modules (Ang)   :   10.000000   10.000000   10.000000
outcell: Cell angles (23,13,12) (deg):     90.0000     90.0000     90.0000
outcell: Cell volume (Ang**3)        :   1000.0000
New_DM. Step:    19
Re-using DM from previous geometry...
Extrapolating Density Matrix...

TDAP: Electric Field

TDAP: External EField    0.000000    0.000000    0.000000 Ry/Bohr/e

siesta: iscf   Eharris(eV)      E_KS(eV)   FreeEng(eV)   dDmax  Ef(eV)
siesta:    1     -468.2355     -468.2355     -468.2355  0.0000 -1.1259

siesta: E_KS(eV) =             -468.2355

siesta: Atomic forces (eV/Ang):
----------------------------------------
   Tot   -0.062895   -0.464761   -0.053478
----------------------------------------
   Max    0.461223
   Res    0.160380    sqrt( Sum f_i^2 / 3N )
----------------------------------------
   Max    0.461223    constrained

Stress-tensor-Voigt (kbar):        0.00        0.03        0.12        0.10        0.05       -0.01
(Free)E + p*V (eV/cell)     -468.2674
Target enthalpy (eV/cell)     -468.2355

siesta: Stress tensor (static) (eV/Ang**3):
         0.000035    0.000000    0.000022
         0.000000    0.000123   -0.000001
         0.000010   -0.000001    0.000092

siesta: Pressure (static):         -0.13340634  kBar

siesta: Stress tensor (total) (eV/Ang**3):
         0.000001    0.000059    0.000006
         0.000060    0.000020    0.000031
        -0.000007    0.000031    0.000075

siesta: Pressure (total):         -0.05116709  kBar

TDAP : Electric dipole (a.u.)  =    0.317691    0.008621   -0.419127
TDAP : Electric dipole (Debye) =    0.807491    0.021913   -1.065315
TDAP : Energy  :  -24.21 -12.51  -8.09  -6.16   2.04   4.25  10.67  12.36
TDAP : Partition :    2.00   2.00   2.00   2.00   0.00   0.00   0.00   0.00

siesta: Temp_ion =     300.000 K

* Maximum dynamic memory allocated =     4 MB

siesta:                 ==============================
                            Begin MD step =     20
                        ==============================

outcell: Unit cell vectors (Ang):
       10.000000    0.000000    0.000000
        0.000000   10.000000    0.000000
        0.000000    0.000000   10.000000

outcell: Cell vector modules (Ang)   :   10.000000   10.000000   10.000000
outcell: Cell angles (23,13,12) (deg):     90.0000     90.0000     90.0000
outcell: Cell volume (Ang**3)        :   1000.0000
New_DM. Step:    20
Re-using DM from previous geometry...
Extrapolating Density Matrix...

TDAP: Electric Field

TDAP: External EField    0.000000    0.000000    0.000000 Ry/Bohr/e

siesta: iscf   Eharris(eV)      E_KS(eV)   FreeEng(eV)   dDmax  Ef(eV)
siesta:    1     -468.2355     -468.2355     -468.2355  0.0000 -1.1259

siesta: E_KS(eV) =             -468.2355

siesta: Atomic forces (eV/Ang):
----------------------------------------
   Tot   -0.063084   -0.464695   -0.053630
----------------------------------------
   Max    0.461223
   Res    0.159995    sqrt( Sum f_i^2 / 3N )
----------------------------------------
   Max    0.461223    constrained

Stress-tensor-Voigt (kbar):        0.00        0.03        0.12        0.10        0.05       -0.01
(Free)E + p*V (eV/cell)     -468.2668
Target enthalpy (eV/cell)     -468.2355

siesta: Stress tensor (static) (eV/Ang**3):
         0.000036    0.000000    0.000020
         0.000000    0.000123   -0.000000
         0.000011   -0.000000    0.000090

siesta: Pressure (static):         -0.13233596  kBar

siesta: Stress tensor (total) (eV/Ang**3):
         0.000001    0.000059    0.000004
         0.000060    0.000020    0.000031
        -0.000006    0.000031    0.000073

siesta: Pressure (total):         -0.05009671  kBar

TDAP : Electric dipole (a.u.)  =    0.317963    0.008616   -0.418874
TDAP : Electric dipole (Debye) =    0.808182    0.021900   -1.064672
TDAP : Energy  :  -24.22 -12.51  -8.09  -6.16   2.04   4.25  10.67  12.36
TDAP : Partition :    2.00   2.00   2.00   2.00   0.00   0.00   0.00   0.00

siesta: Temp_ion =     300.000 K

* Maximum dynamic memory allocated =     4 MB

siesta:                 ==============================
                            Begin MD step =     21
                        ==============================

outcell: Unit cell vectors (Ang):
       10.000000    0.000000    0.000000
        0.000000   10.000000    0.000000
        0.000000    0.000000   10.000000

outcell: Cell vector modules (Ang)   :   10.000000   10.000000   10.000000
outcell: Cell angles (23,13,12) (deg):     90.0000     90.0000     90.0000
outcell: Cell volume (Ang**3)        :   1000.0000
New_DM. Step:    21
Re-using DM from previous geometry...
Extrapolating Density Matrix...

TDAP: Electric Field

TDAP: External EField    0.000000    0.000000    0.000000 Ry/Bohr/e

siesta: iscf   Eharris(eV)      E_KS(eV)   FreeEng(eV)   dDmax  Ef(eV)
siesta:    1     -468.2355     -468.2355     -468.2355  0.0000 -1.1259

siesta: E_KS(eV) =             -468.2355

siesta: Atomic forces (eV/Ang):
----------------------------------------
   Tot   -0.063390   -0.464585   -0.053744
----------------------------------------
   Max    0.461197
   Res    0.159207    sqrt( Sum f_i^2 / 3N )
----------------------------------------
   Max    0.461197    constrained

Stress-tensor-Voigt (kbar):        0.01        0.03        0.11        0.10        0.05       -0.01
(Free)E + p*V (eV/cell)     -468.2668
Target enthalpy (eV/cell)     -468.2355

siesta: Stress tensor (static) (eV/Ang**3):
         0.000038    0.000000    0.000017
         0.000000    0.000122   -0.000000
         0.000011   -0.000000    0.000087

siesta: Pressure (static):         -0.13228377  kBar

siesta: Stress tensor (total) (eV/Ang**3):
         0.000004    0.000059    0.000000
         0.000060    0.000019    0.000031
        -0.000006    0.000031    0.000070

siesta: Pressure (total):         -0.05004453  kBar

TDAP : Electric dipole (a.u.)  =    0.317815    0.008612   -0.418694
TDAP : Electric dipole (Debye) =    0.807805    0.021891   -1.064213
TDAP : Energy  :  -24.22 -12.51  -8.09  -6.17   2.04   4.25  10.67  12.36
TDAP : Partition :    2.00   2.00   2.00   2.00   0.00   0.00   0.00   0.00

siesta: Temp_ion =     300.000 K

* Maximum dynamic memory allocated =     4 MB

siesta:                 ==============================
                            Begin MD step =     22
                        ==============================

outcell: Unit cell vectors (Ang):
       10.000000    0.000000    0.000000
        0.000000   10.000000    0.000000
        0.000000    0.000000   10.000000

outcell: Cell vector modules (Ang)   :   10.000000   10.000000   10.000000
outcell: Cell angles (23,13,12) (deg):     90.0000     90.0000     90.0000
outcell: Cell volume (Ang**3)        :   1000.0000
New_DM. Step:    22
Re-using DM from previous geometry...
Extrapolating Density Matrix...

TDAP: Electric Field

TDAP: External EField    0.000000    0.000000    0.000000 Ry/Bohr/e

siesta: iscf   Eharris(eV)      E_KS(eV)   FreeEng(eV)   dDmax  Ef(eV)
siesta:    1     -468.2355     -468.2355     -468.2355  0.0001 -1.1259

siesta: E_KS(eV) =             -468.2355

siesta: Atomic forces (eV/Ang):
----------------------------------------
   Tot   -0.063464   -0.464455   -0.053728
----------------------------------------
   Max    0.461156
   Res    0.158130    sqrt( Sum f_i^2 / 3N )
----------------------------------------
   Max    0.461156    constrained

Stress-tensor-Voigt (kbar):        0.01        0.03        0.11        0.10        0.05       -0.01
(Free)E + p*V (eV/cell)     -468.2675
Target enthalpy (eV/cell)     -468.2355

siesta: Stress tensor (static) (eV/Ang**3):
         0.000043    0.000000    0.000013
         0.000000    0.000122   -0.000000
         0.000012   -0.000000    0.000084

siesta: Pressure (static):         -0.13342792  kBar

siesta: Stress tensor (total) (eV/Ang**3):
         0.000009    0.000060   -0.000004
         0.000060    0.000019    0.000031
        -0.000005    0.000031    0.000068

siesta: Pressure (total):         -0.05118867  kBar

TDAP : Electric dipole (a.u.)  =    0.317347    0.008610   -0.418561
TDAP : Electric dipole (Debye) =    0.806615    0.021884   -1.063877
TDAP : Energy  :  -24.22 -12.52  -8.10  -6.17   2.04   4.25  10.67  12.36
TDAP : Partition :    2.00   2.00   2.00   2.00   0.00   0.00   0.00   0.00

siesta: Temp_ion =     300.000 K

* Maximum dynamic memory allocated =     4 MB

siesta:                 ==============================
                            Begin MD step =     23
                        ==============================

outcell: Unit cell vectors (Ang):
       10.000000    0.000000    0.000000
        0.000000   10.000000    0.000000
        0.000000    0.000000   10.000000

outcell: Cell vector modules (Ang)   :   10.000000   10.000000   10.000000
outcell: Cell angles (23,13,12) (deg):     90.0000     90.0000     90.0000
outcell: Cell volume (Ang**3)        :   1000.0000
New_DM. Step:    23
Re-using DM from previous geometry...
Extrapolating Density Matrix...

TDAP: Electric Field

TDAP: External EField    0.000000    0.000000    0.000000 Ry/Bohr/e

siesta: iscf   Eharris(eV)      E_KS(eV)   FreeEng(eV)   dDmax  Ef(eV)
siesta:    1     -468.2355     -468.2355     -468.2355  0.0000 -1.1259

siesta: E_KS(eV) =             -468.2355

siesta: Atomic forces (eV/Ang):
----------------------------------------
   Tot   -0.063513   -0.464388   -0.053531
----------------------------------------
   Max    0.461171
   Res    0.157163    sqrt( Sum f_i^2 / 3N )
----------------------------------------
   Max    0.461171    constrained

Stress-tensor-Voigt (kbar):        0.02        0.03        0.11        0.10        0.05       -0.01
(Free)E + p*V (eV/cell)     -468.2685
Target enthalpy (eV/cell)     -468.2355

siesta: Stress tensor (static) (eV/Ang**3):
         0.000048    0.000000    0.000008
         0.000000    0.000122   -0.000000
         0.000013   -0.000000    0.000083

siesta: Pressure (static):         -0.13512990  kBar

siesta: Stress tensor (total) (eV/Ang**3):
         0.000014    0.000060   -0.000009
         0.000060    0.000019    0.000031
        -0.000003    0.000031    0.000066

siesta: Pressure (total):         -0.05289065  kBar

TDAP : Electric dipole (a.u.)  =    0.316779    0.008608   -0.418483
TDAP : Electric dipole (Debye) =    0.805174    0.021881   -1.063679
TDAP : Energy  :  -24.22 -12.52  -8.10  -6.17   2.04   4.25  10.67  12.36
TDAP : Partition :    2.00   2.00   2.00   2.00   0.00   0.00   0.00   0.00

siesta: Temp_ion =     300.000 K

* Maximum dynamic memory allocated =     4 MB

siesta:                 ==============================
                            Begin MD step =     24
                        ==============================

outcell: Unit cell vectors (Ang):
       10.000000    0.000000    0.000000
        0.000000   10.000000    0.000000
        0.000000    0.000000   10.000000

outcell: Cell vector modules (Ang)   :   10.000000   10.000000   10.000000
outcell: Cell angles (23,13,12) (deg):     90.0000     90.0000     90.0000
outcell: Cell volume (Ang**3)        :   1000.0000
New_DM. Step:    24
Re-using DM from previous geometry...
Extrapolating Density Matrix...

TDAP: Electric Field

TDAP: External EField    0.000000    0.000000    0.000000 Ry/Bohr/e

siesta: iscf   Eharris(eV)      E_KS(eV)   FreeEng(eV)   dDmax  Ef(eV)
siesta:    1     -468.2355     -468.2355     -468.2355  0.0000 -1.1259

siesta: E_KS(eV) =             -468.2355

siesta: Atomic forces (eV/Ang):
----------------------------------------
   Tot   -0.063778   -0.464357   -0.053399
----------------------------------------
   Max    0.461192
   Res    0.156562    sqrt( Sum f_i^2 / 3N )
----------------------------------------
   Max    0.461192    constrained

Stress-tensor-Voigt (kbar):        0.03        0.03        0.11        0.10        0.05       -0.00
(Free)E + p*V (eV/cell)     -468.2697
Target enthalpy (eV/cell)     -468.2355

siesta: Stress tensor (static) (eV/Ang**3):
         0.000052    0.000000    0.000005
         0.000000    0.000122   -0.000000
         0.000015   -0.000000    0.000082

siesta: Pressure (static):         -0.13699623  kBar

siesta: Stress tensor (total) (eV/Ang**3):
         0.000018    0.000060   -0.000012
         0.000059    0.000019    0.000031
        -0.000002    0.000031    0.000066

siesta: Pressure (total):         -0.05475698  kBar

TDAP : Electric dipole (a.u.)  =    0.316313    0.008609   -0.418503
TDAP : Electric dipole (Debye) =    0.803987    0.021881   -1.063729
TDAP : Energy  :  -24.22 -12.52  -8.10  -6.17   2.04   4.25  10.67  12.36
TDAP : Partition :    2.00   2.00   2.00   2.00   0.00   0.00   0.00   0.00

siesta: Temp_ion =     300.000 K

* Maximum dynamic memory allocated =     4 MB

siesta:                 ==============================
                            Begin MD step =     25
                        ==============================

outcell: Unit cell vectors (Ang):
       10.000000    0.000000    0.000000
        0.000000   10.000000    0.000000
        0.000000    0.000000   10.000000

outcell: Cell vector modules (Ang)   :   10.000000   10.000000   10.000000
outcell: Cell angles (23,13,12) (deg):     90.0000     90.0000     90.0000
outcell: Cell volume (Ang**3)        :   1000.0000
New_DM. Step:    25
Re-using DM from previous geometry...
Extrapolating Density Matrix...

TDAP: Electric Field

TDAP: External EField    0.000000    0.000000    0.000000 Ry/Bohr/e

siesta: iscf   Eharris(eV)      E_KS(eV)   FreeEng(eV)   dDmax  Ef(eV)
siesta:    1     -468.2355     -468.2355     -468.2355  0.0001 -1.1259

siesta: E_KS(eV) =             -468.2355

siesta: Atomic forces (eV/Ang):
----------------------------------------
   Tot   -0.064152   -0.464343   -0.053549
----------------------------------------
   Max    0.461195
   Res    0.156258    sqrt( Sum f_i^2 / 3N )
----------------------------------------
   Max    0.461195    constrained

Stress-tensor-Voigt (kbar):        0.03        0.03        0.11        0.10        0.05       -0.00
(Free)E + p*V (eV/cell)     -468.2709
Target enthalpy (eV/cell)     -468.2355

siesta: Stress tensor (static) (eV/Ang**3):
         0.000055    0.000001    0.000004
         0.000000    0.000122   -0.000000
         0.000017   -0.000000    0.000083

siesta: Pressure (static):         -0.13896418  kBar

siesta: Stress tensor (total) (eV/Ang**3):
         0.000021    0.000060   -0.000013
         0.000059    0.000019    0.000031
        -0.000000    0.000031    0.000066

siesta: Pressure (total):         -0.05672493  kBar

TDAP : Electric dipole (a.u.)  =    0.316073    0.008611   -0.418627
TDAP : Electric dipole (Debye) =    0.803378    0.021887   -1.064046
TDAP : Energy  :  -24.22 -12.52  -8.10  -6.17   2.04   4.25  10.67  12.36
TDAP : Partition :    2.00   2.00   2.00   2.00   0.00   0.00   0.00   0.00

siesta: Temp_ion =     300.000 K

* Maximum dynamic memory allocated =     4 MB

siesta:                 ==============================
                            Begin MD step =     26
                        ==============================

outcell: Unit cell vectors (Ang):
       10.000000    0.000000    0.000000
        0.000000   10.000000    0.000000
        0.000000    0.000000   10.000000

outcell: Cell vector modules (Ang)   :   10.000000   10.000000   10.000000
outcell: Cell angles (23,13,12) (deg):     90.0000     90.0000     90.0000
outcell: Cell volume (Ang**3)        :   1000.0000
New_DM. Step:    26
Re-using DM from previous geometry...
Extrapolating Density Matrix...

TDAP: Electric Field

TDAP: External EField    0.000000    0.000000    0.000000 Ry/Bohr/e

siesta: iscf   Eharris(eV)      E_KS(eV)   FreeEng(eV)   dDmax  Ef(eV)
siesta:    1     -468.2355     -468.2355     -468.2355  0.0000 -1.1259

siesta: E_KS(eV) =             -468.2355

siesta: Atomic forces (eV/Ang):
----------------------------------------
   Tot   -0.064364   -0.464371   -0.053781
----------------------------------------
   Max    0.461233
   Res    0.156073    sqrt( Sum f_i^2 / 3N )
----------------------------------------
   Max    0.461233    constrained

Stress-tensor-Voigt (kbar):        0.04        0.03        0.11        0.10        0.05        0.00
(Free)E + p*V (eV/cell)     -468.2719
Target enthalpy (eV/cell)     -468.2355

siesta: Stress tensor (static) (eV/Ang**3):
         0.000058    0.000001    0.000003
         0.000000    0.000122   -0.000000
         0.000017   -0.000000    0.000083

siesta: Pressure (static):         -0.14049321  kBar

siesta: Stress tensor (total) (eV/Ang**3):
         0.000024    0.000060   -0.000014
         0.000059    0.000019    0.000031
         0.000000    0.000031    0.000066

siesta: Pressure (total):         -0.05825397  kBar

TDAP : Electric dipole (a.u.)  =    0.316089    0.008614   -0.418768
TDAP : Electric dipole (Debye) =    0.803418    0.021894   -1.064402
TDAP : Energy  :  -24.22 -12.52  -8.10  -6.17   2.04   4.25  10.67  12.36
TDAP : Partition :    2.00   2.00   2.00   2.00   0.00   0.00   0.00   0.00

siesta: Temp_ion =     300.000 K

* Maximum dynamic memory allocated =     4 MB

[...]
(Free)E + p*V (eV/cell)     -468.2696
Target enthalpy (eV/cell)     -468.2356

siesta: Stress tensor (static) (eV/Ang**3):
         0.000046    0.000000    0.000010
         0.000000    0.000122   -0.000000
         0.000015   -0.000000    0.000087

siesta: Pressure (static):         -0.13673631  kBar

siesta: Stress tensor (total) (eV/Ang**3):
         0.000012    0.000060   -0.000007
         0.000060    0.000019    0.000031
        -0.000002    0.000031    0.000071

siesta: Pressure (total):         -0.05449706  kBar

TDAP : Electric dipole (a.u.)  =    0.316884    0.008611   -0.418645
TDAP : Electric dipole (Debye) =    0.805439    0.021887   -1.064089
TDAP : Energy  :  -24.22 -12.51  -8.10  -6.17   2.04   4.25  10.67  12.36
TDAP : Partition :    2.00   2.00   2.00   2.00   0.00   0.00   0.00   0.00

siesta: Temp_ion =     300.000 K

* Maximum dynamic memory allocated =     4 MB

siesta:                 ==============================
                            Begin MD step =   1496
                        ==============================

outcell: Unit cell vectors (Ang):
       10.000000    0.000000    0.000000
        0.000000   10.000000    0.000000
        0.000000    0.000000   10.000000

outcell: Cell vector modules (Ang)   :   10.000000   10.000000   10.000000
outcell: Cell angles (23,13,12) (deg):     90.0000     90.0000     90.0000
outcell: Cell volume (Ang**3)        :   1000.0000
New_DM. Step:  1496
Re-using DM from previous geometry...
Extrapolating Density Matrix...

TDAP: Electric Field

TDAP: External EField    0.000000    0.000000    0.000000 Ry/Bohr/e

siesta: iscf   Eharris(eV)      E_KS(eV)   FreeEng(eV)   dDmax  Ef(eV)
siesta:    1     -468.2356     -468.2356     -468.2356  0.0001 -1.1259
siesta:    2     -468.2356     -468.2356     -468.2356  0.0000 -1.1259

siesta: E_KS(eV) =             -468.2356

siesta: Atomic forces (eV/Ang):
----------------------------------------
   Tot   -0.063681   -0.464502   -0.053499
----------------------------------------
   Max    0.461187
   Res    0.157433    sqrt( Sum f_i^2 / 3N )
----------------------------------------
   Max    0.461187    constrained

Stress-tensor-Voigt (kbar):        0.02        0.03        0.11        0.10        0.05       -0.00
(Free)E + p*V (eV/cell)     -468.2692
Target enthalpy (eV/cell)     -468.2356

siesta: Stress tensor (static) (eV/Ang**3):
         0.000046    0.000000    0.000009
         0.000000    0.000122   -0.000000
         0.000014   -0.000000    0.000086

siesta: Pressure (static):         -0.13609284  kBar

siesta: Stress tensor (total) (eV/Ang**3):
         0.000012    0.000060   -0.000008
         0.000060    0.000019    0.000031
        -0.000003    0.000031    0.000069

siesta: Pressure (total):         -0.05385360  kBar

TDAP : Electric dipole (a.u.)  =    0.316888    0.008610   -0.418603
TDAP : Electric dipole (Debye) =    0.805449    0.021884   -1.063985
TDAP : Energy  :  -24.22 -12.52  -8.10  -6.17   2.04   4.25  10.67  12.36
TDAP : Partition :    2.00   2.00   2.00   2.00   0.00   0.00   0.00   0.00

siesta: Temp_ion =     300.000 K

* Maximum dynamic memory allocated =     4 MB

siesta:                 ==============================
                            Begin MD step =   1497
                        ==============================

outcell: Unit cell vectors (Ang):
       10.000000    0.000000    0.000000
        0.000000   10.000000    0.000000
        0.000000    0.000000   10.000000

outcell: Cell vector modules (Ang)   :   10.000000   10.000000   10.000000
outcell: Cell angles (23,13,12) (deg):     90.0000     90.0000     90.0000
outcell: Cell volume (Ang**3)        :   1000.0000
New_DM. Step:  1497
Re-using DM from previous geometry...
Extrapolating Density Matrix...

TDAP: Electric Field

TDAP: External EField    0.000000    0.000000    0.000000 Ry/Bohr/e

siesta: iscf   Eharris(eV)      E_KS(eV)   FreeEng(eV)   dDmax  Ef(eV)
siesta:    1     -468.2356     -468.2356     -468.2356  0.0001 -1.1259

siesta: E_KS(eV) =             -468.2356

siesta: Atomic forces (eV/Ang):
----------------------------------------
   Tot   -0.063239   -0.464538   -0.053513
----------------------------------------
   Max    0.461199
   Res    0.157286    sqrt( Sum f_i^2 / 3N )
----------------------------------------
   Max    0.461199    constrained

Stress-tensor-Voigt (kbar):        0.02        0.03        0.11        0.10        0.05       -0.01
(Free)E + p*V (eV/cell)     -468.2689
Target enthalpy (eV/cell)     -468.2356

siesta: Stress tensor (static) (eV/Ang**3):
         0.000046    0.000000    0.000007
         0.000000    0.000122   -0.000000
         0.000013   -0.000000    0.000086

siesta: Pressure (static):         -0.13560198  kBar

siesta: Stress tensor (total) (eV/Ang**3):
         0.000011    0.000060   -0.000010
         0.000060    0.000019    0.000031
        -0.000004    0.000031    0.000069

siesta: Pressure (total):         -0.05336273  kBar

TDAP : Electric dipole (a.u.)  =    0.316877    0.008611   -0.418668
TDAP : Electric dipole (Debye) =    0.805422    0.021887   -1.064149
TDAP : Energy  :  -24.22 -12.52  -8.10  -6.17   2.04   4.25  10.67  12.36
TDAP : Partition :    2.00   2.00   2.00   2.00   0.00   0.00   0.00   0.00

siesta: Temp_ion =     300.000 K

* Maximum dynamic memory allocated =     4 MB

siesta:                 ==============================
                            Begin MD step =   1498
                        ==============================

outcell: Unit cell vectors (Ang):
       10.000000    0.000000    0.000000
        0.000000   10.000000    0.000000
        0.000000    0.000000   10.000000

outcell: Cell vector modules (Ang)   :   10.000000   10.000000   10.000000
outcell: Cell angles (23,13,12) (deg):     90.0000     90.0000     90.0000
outcell: Cell volume (Ang**3)        :   1000.0000
New_DM. Step:  1498
Re-using DM from previous geometry...
Extrapolating Density Matrix...

TDAP: Electric Field

TDAP: External EField    0.000000    0.000000    0.000000 Ry/Bohr/e

siesta: iscf   Eharris(eV)      E_KS(eV)   FreeEng(eV)   dDmax  Ef(eV)
siesta:    1     -468.2356     -468.2356     -468.2356  0.0001 -1.1259

siesta: E_KS(eV) =             -468.2356

siesta: Atomic forces (eV/Ang):
----------------------------------------
   Tot   -0.063369   -0.464534   -0.053662
----------------------------------------
   Max    0.461204
   Res    0.157439    sqrt( Sum f_i^2 / 3N )
----------------------------------------
   Max    0.461204    constrained

Stress-tensor-Voigt (kbar):        0.01        0.03        0.11        0.10        0.05       -0.01
(Free)E + p*V (eV/cell)     -468.2680
Target enthalpy (eV/cell)     -468.2356

siesta: Stress tensor (static) (eV/Ang**3):
         0.000044    0.000000    0.000006
         0.000000    0.000122   -0.000000
         0.000012   -0.000000    0.000085

siesta: Pressure (static):         -0.13408618  kBar

siesta: Stress tensor (total) (eV/Ang**3):
         0.000009    0.000060   -0.000010
         0.000060    0.000019    0.000031
        -0.000005    0.000031    0.000068

siesta: Pressure (total):         -0.05184693  kBar

TDAP : Electric dipole (a.u.)  =    0.316749    0.008613   -0.418748
TDAP : Electric dipole (Debye) =    0.805097    0.021892   -1.064353
TDAP : Energy  :  -24.22 -12.52  -8.10  -6.17   2.04   4.25  10.67  12.36
TDAP : Partition :    2.00   2.00   2.00   2.00   0.00   0.00   0.00   0.00

siesta: Temp_ion =     300.000 K

* Maximum dynamic memory allocated =     4 MB

siesta:                 ==============================
                            Begin MD step =   1499
                        ==============================

outcell: Unit cell vectors (Ang):
       10.000000    0.000000    0.000000
        0.000000   10.000000    0.000000
        0.000000    0.000000   10.000000

outcell: Cell vector modules (Ang)   :   10.000000   10.000000   10.000000
outcell: Cell angles (23,13,12) (deg):     90.0000     90.0000     90.0000
outcell: Cell volume (Ang**3)        :   1000.0000
New_DM. Step:  1499
Re-using DM from previous geometry...
Extrapolating Density Matrix...

TDAP: Electric Field

TDAP: External EField    0.000000    0.000000    0.000000 Ry/Bohr/e

siesta: iscf   Eharris(eV)      E_KS(eV)   FreeEng(eV)   dDmax  Ef(eV)
siesta:    1     -468.2356     -468.2356     -468.2356  0.0001 -1.1259

siesta: E_KS(eV) =             -468.2356

siesta: Atomic forces (eV/Ang):
----------------------------------------
   Tot   -0.063974   -0.464477   -0.053694
----------------------------------------
   Max    0.461194
   Res    0.157462    sqrt( Sum f_i^2 / 3N )
----------------------------------------
   Max    0.461194    constrained

Stress-tensor-Voigt (kbar):        0.02        0.03        0.11        0.10        0.05       -0.01
(Free)E + p*V (eV/cell)     -468.2678
Target enthalpy (eV/cell)     -468.2356

siesta: Stress tensor (static) (eV/Ang**3):
         0.000045    0.000000    0.000008
         0.000000    0.000122   -0.000000
         0.000013   -0.000000    0.000084

siesta: Pressure (static):         -0.13385058  kBar

siesta: Stress tensor (total) (eV/Ang**3):
         0.000010    0.000060   -0.000009
         0.000060    0.000019    0.000031
        -0.000004    0.000031    0.000067

siesta: Pressure (total):         -0.05161133  kBar

TDAP : Electric dipole (a.u.)  =    0.316575    0.008614   -0.418775
TDAP : Electric dipole (Debye) =    0.804653    0.021895   -1.064421
TDAP : Energy  :  -24.22 -12.52  -8.10  -6.17   2.04   4.25  10.67  12.36
TDAP : Partition :    2.00   2.00   2.00   2.00   0.00   0.00   0.00   0.00

siesta: Temp_ion =     300.000 K

* Maximum dynamic memory allocated =     4 MB

siesta:                 ==============================
                            Begin MD step =   1500
                        ==============================

outcell: Unit cell vectors (Ang):
       10.000000    0.000000    0.000000
        0.000000   10.000000    0.000000
        0.000000    0.000000   10.000000

outcell: Cell vector modules (Ang)   :   10.000000   10.000000   10.000000
outcell: Cell angles (23,13,12) (deg):     90.0000     90.0000     90.0000
outcell: Cell volume (Ang**3)        :   1000.0000
New_DM. Step:  1500
Re-using DM from previous geometry...
Extrapolating Density Matrix...

TDAP: Electric Field

TDAP: External EField    0.000000    0.000000    0.000000 Ry/Bohr/e

siesta: iscf   Eharris(eV)      E_KS(eV)   FreeEng(eV)   dDmax  Ef(eV)
siesta:    1     -468.2356     -468.2356     -468.2356  0.0001 -1.1259

siesta: E_KS(eV) =             -468.2356

siesta: Atomic forces (eV/Ang):
----------------------------------------
   Tot   -0.064090   -0.464454   -0.053574
----------------------------------------
   Max    0.461188
   Res    0.157139    sqrt( Sum f_i^2 / 3N )
----------------------------------------
   Max    0.461188    constrained

Stress-tensor-Voigt (kbar):        0.02        0.03        0.11        0.10        0.05       -0.01
(Free)E + p*V (eV/cell)     -468.2689
Target enthalpy (eV/cell)     -468.2356

siesta: Stress tensor (static) (eV/Ang**3):
         0.000048    0.000000    0.000008
         0.000000    0.000122   -0.000000
         0.000013   -0.000000    0.000083

siesta: Pressure (static):         -0.13567371  kBar

siesta: Stress tensor (total) (eV/Ang**3):
         0.000014    0.000060   -0.000009
         0.000060    0.000019    0.000031
        -0.000004    0.000031    0.000066

siesta: Pressure (total):         -0.05343446  kBar
Writing WFSX for COOP/COHP in siesta.TDWFSX

TDAP : Electric dipole (a.u.)  =    0.316568    0.008616   -0.418827
TDAP : Electric dipole (Debye) =    0.804637    0.021899   -1.064554
TDAP : Energy  :  -24.22 -12.52  -8.10  -6.17   2.04   4.25  10.67  12.36
TDAP : Partition :    2.00   2.00   2.00   2.00   0.00   0.00   0.00   0.00

siesta: Temp_ion =     300.000 K

* Maximum dynamic memory allocated =     4 MB

siesta: Program's energy decomposition (eV):
siesta: Ebs     =      -101.990733
siesta: Eions   =       815.854478
siesta: Ena     =       170.060777
siesta: Ekin    =       357.155987
siesta: Enl     =       -63.823492
siesta: DEna    =        -0.147570
siesta: DUscf   =         0.702844
siesta: DUext   =        -0.000000
siesta: Exc     =      -116.329658
siesta: eta*DQ  =         0.000000
siesta: Emadel  =         0.000000
siesta: Emeta   =         0.000000
siesta: Emolmec =         0.000000
siesta: Ekinion =         0.077553
siesta: Eharris =      -468.158034
siesta: Etot    =      -468.158038
siesta: FreeEng =      -468.158038

siesta: Final energy (eV):
siesta:  Band Struct. =    -101.990733
siesta:       Kinetic =     357.155987
siesta:       Hartree =     460.289378
siesta:    Ext. field =      -0.000000
siesta:   Exch.-corr. =    -116.329658
siesta:  Ion-electron =   -1228.786589
siesta:       Ion-ion =      59.435292
siesta:       Ekinion =       0.077553
siesta:         Total =    -468.158038

siesta: Atomic forces (eV/Ang):
siesta:      1    0.005491   -0.001704   -0.005511
siesta:      2    0.017927   -0.001563   -0.010996
siesta:      3   -0.087508   -0.461188   -0.037066
siesta: ----------------------------------------
siesta:    Tot   -0.064090   -0.464454   -0.053574

siesta: Stress tensor (static) (eV/Ang**3):
siesta:     0.000048    0.000000    0.000008
siesta:     0.000000    0.000122   -0.000000
siesta:     0.000013   -0.000000    0.000083

siesta: Cell volume =       1000.000000 Ang**3

siesta: Pressure (static):
siesta:                Solid            Molecule  Units
siesta:          -0.00000092         -0.00000100  Ry/Bohr**3
siesta:          -0.00008468         -0.00009207  eV/Ang**3
siesta:          -0.13567371         -0.14751207  kBar
(Free)E+ p_basis*V_orbitals  =        -467.690267
(Free)Eharris+ p_basis*V_orbitals  =        -467.690268

siesta: Electric dipole (a.u.)  =    0.316568    0.008616   -0.418827
siesta: Electric dipole (Debye) =    0.804637    0.021899   -1.064554

* Maximum dynamic memory allocated : Node    0 =     4 MB
* Maximum dynamic memory allocated : Node    1 =     4 MB
* Maximum dynamic memory allocated : Node    2 =     4 MB
* Maximum dynamic memory allocated : Node    3 =     4 MB
* Maximum dynamic memory allocated : Node    4 =     4 MB
* Maximum dynamic memory allocated : Node    5 =     4 MB
* Maximum dynamic memory allocated : Node    6 =     4 MB
* Maximum dynamic memory allocated : Node    7 =     4 MB
* Maximum dynamic memory allocated : Node    8 =     4 MB
* Maximum dynamic memory allocated : Node    9 =     4 MB

* Maximum memory occured during ranger                        

timer: CPU execution times:
timer:  Routine       Calls   Time/call    Tot.time        %
timer:  siesta            1    1910.490    1910.490   100.00
timer:  Setup             1       2.070       2.070     0.11
timer:  bands             1       0.002       0.002     0.00
timer:  writewave         1       0.006       0.006     0.00
timer:  KSV_init          1       0.001       0.001     0.00
timer:  IterMD         1500       1.272    1908.357    99.89
timer:  hsparse        1500       0.000       0.475     0.02
timer:  overlap        1500       0.001       1.394     0.07
timer:  IterSCF        1832       0.497     910.525    47.66
timer:  kinefsm        3000       0.001       1.615     0.08
timer:  nlefsm         3000       0.013      39.621     2.07
timer:  DHSCF          3332       0.445    1483.479    77.65
timer:  DHSCF1            1       0.179       0.179     0.01
timer:  DHSCF2            1       0.286       0.286     0.01
timer:  REORD         33322       0.001      19.444     1.02
timer:  POISON         3333       0.062     205.178    10.74
timer:  DHSCF3         3332       0.412    1372.733    71.85
timer:  rhoofd         3332       0.013      43.329     2.27
timer:  cellXC         3332       0.250     833.955    43.65
timer:  vmat           3332       0.028      93.432     4.89
timer:  MolMec         3000       0.000       0.095     0.00
timer:  diagon           23       0.059       1.355     0.07
timer:  r-eigvec         23       0.058       1.342     0.07
timer:  r-buildHS      1832       0.000       0.001     0.00
timer:  rdiag            23       0.058       1.341     0.07
timer:  rdiag1           23       0.006       0.130     0.01
timer:  rdiag2           23       0.021       0.478     0.03
timer:  rdiag3           23       0.030       0.679     0.04
timer:  rdiag4           23       0.001       0.029     0.00
timer:  r-buildD       1832       0.000       0.007     0.00
timer:  DHSCF4         1500       0.072     108.377     5.67
timer:  dfscf          1500       0.065      98.090     5.13
timer:  overfsm        1500       0.001       1.247     0.07
timer:  evolve         1809       0.061     109.738     5.74
timer:  r-evolgg       1809       0.000       0.000     0.00
timer:  zevolg.1       1809       0.011      19.556     1.02
timer:  zevolg.2       1809       0.001       1.624     0.08
timer:  zevolg.3       1809       0.000       0.032     0.00
timer:  zevolg.4       1809       0.011      20.754     1.09
timer:  zevolg.5       1809       0.001       1.310     0.07
timer:  zevolg.6       1809       0.000       0.070     0.00
timer:  optical           1       0.017       0.017     0.00
  

elaps: ELAPSED times:
elaps:  Routine       Calls   Time/call    Tot.time        %
elaps:  siesta            1     193.294     193.294   100.00
elaps:  Setup             1       0.207       0.207     0.11
elaps:  bands             1       0.000       0.000     0.00
elaps:  writewave         1       0.001       0.001     0.00
elaps:  KSV_init          1       0.000       0.000     0.00
elaps:  IterMD         1500       0.129     193.061    99.88
elaps:  hsparse        1500       0.000       0.054     0.03
elaps:  overlap        1500       0.000       0.153     0.08
elaps:  IterSCF        1832       0.051      92.781    48.00
elaps:  kinefsm        3000       0.000       0.194     0.10
elaps:  nlefsm         3000       0.001       4.090     2.12
elaps:  DHSCF          3332       0.043     142.707    73.83
elaps:  DHSCF1            1       0.021       0.021     0.01
elaps:  DHSCF2            1       0.025       0.025     0.01
elaps:  REORD         33322       0.000       2.048     1.06
elaps:  POISON         3333       0.006      20.759    10.74
elaps:  DHSCF3         3332       0.041     138.084    71.44
elaps:  rhoofd         3332       0.000       0.876     0.45
elaps:  cellXC         3332       0.025      83.634    43.27
elaps:  vmat           3332       0.003       9.324     4.82
elaps:  MolMec         3000       0.000       0.010     0.01
elaps:  diagon           23       0.006       0.133     0.07
elaps:  r-eigvec         23       0.006       0.130     0.07
elaps:  r-buildHS      1832       0.000       0.000     0.00
elaps:  rdiag            23       0.006       0.130     0.07
elaps:  rdiag1           23       0.001       0.013     0.01
elaps:  rdiag2           23       0.002       0.046     0.02
elaps:  rdiag3           23       0.003       0.069     0.04
elaps:  rdiag4           23       0.000       0.001     0.00
elaps:  r-buildD       1832       0.000       0.003     0.00
elaps:  DHSCF4         1500       0.003       4.368     2.26
elaps:  dfscf          1500       0.003       4.203     2.17
elaps:  overfsm        1500       0.000       0.131     0.07
elaps:  evolve         1809       0.006      11.726     6.07
elaps:  r-evolgg       1809       0.000       0.000     0.00
elaps:  zevolg.1       1809       0.001       1.968     1.02
elaps:  zevolg.2       1809       0.000       0.146     0.08
elaps:  zevolg.3       1809       0.000       0.004     0.00
elaps:  zevolg.4       1809       0.001       2.122     1.10
elaps:  zevolg.5       1809       0.000       0.129     0.07
elaps:  zevolg.6       1809       0.000       0.009     0.00
elaps:  optical           1       0.000       0.000     0.00
  
>> End of run:   2-DEC-2020  22:23:36
