Siesta Version:                                        tdap-2.2.3, based on siesta-3.2-pl-5
Architecture  : x86_64-unknown-linux-gnu--unknown
Compiler flags: mpif90 -g -O2 -ffree-line-length-none
PARALLEL version

* Running on   10 nodes in parallel
>> Start of run:   2-DEC-2020  22:20:23

                           ***********************       
                           *  WELCOME TO SIESTA  *       
                           ***********************       

reinit: Reading from standard input
************************** Dump of input data file ****************************
#DFT
XC.functional GGA
XC.authors  PBE
SCFMustConverge T
#MD
SolutionMethod      evolve
MD.TypeOfRun        verlet
MD.FinalTimeStep    1500
TD.FinalTimeStep    1500
MD.LengthTimeStep     0.00 fs
TD.LengthTimeStep   0.01 fs
MD.InitialTemperature  300 k
%block kgrid_Monkhorst_Pack
1 0 0 0.0
0 1 0 0.0
0 0 1 0.0
%endblock kgrid_Monkhorst_Pack
AtomicCoordinatesFormat  Fractional
LatticeConstant  1.0  Ang
NumberOfAtoms    3
NumberOfSpecies  2
%block LatticeVectors
       10.0        0.0000000000         0.0000000000
       0.0         10.0                 0.0000000000
       0.00        0.00                 10.0
%endblock LatticeVectors
%block ChemicalSpeciesLabel
   1    1    H
   2    8    O
%endblock ChemicalSpeciesLabel
%block AtomicCoordinatesAndAtomicSpecies
    0.44820475    0.41355314    0.41547532   1       1  H
    0.57091037    0.41168595    0.50808773   1       2  H
    0.47461484    0.41168595    0.50808773   2       3  O
%endblock AtomicCoordinatesAndAtomicSpecies
TD.DeltaElectricField T
%block ExternalElectricField #E0
0 0 0.002  Ry/Bohr/e
%endblock ExternalElectricField
************************** End of input data file *****************************

reinit: -----------------------------------------------------------------------
reinit: System Name: 
reinit: -----------------------------------------------------------------------
reinit: System Label: siesta                                                      
reinit: -----------------------------------------------------------------------

initatom: Reading input for the pseudopotentials and atomic orbitals ----------
 Species number:            1  Label: H Atomic number:           1
 Species number:            2  Label: O Atomic number:           8
Ground state valence configuration:   1s01
Reading pseudopotential information in formatted form from H.psf

Valence configuration for pseudopotential generation:
1s( 1.00) rc: 1.25
2p( 0.00) rc: 1.25
3d( 0.00) rc: 1.25
4f( 0.00) rc: 1.25
Ground state valence configuration:   2s02  2p04
Reading pseudopotential information in formatted form from O.psf

Valence configuration for pseudopotential generation:
2s( 2.00) rc: 1.14
2p( 4.00) rc: 1.14
3d( 0.00) rc: 1.14
4f( 0.00) rc: 1.14
For H, standard SIESTA heuristics set lmxkb to 2
 (one more than the basis l, including polarization orbitals).
Use PS.lmax or PS.KBprojectors blocks to override.
For O, standard SIESTA heuristics set lmxkb to 3
 (one more than the basis l, including polarization orbitals).
Use PS.lmax or PS.KBprojectors blocks to override.

<basis_specs>
===============================================================================
H                    Z=   1    Mass=  1.0100        Charge= 0.17977+309
Lmxo=0 Lmxkb= 2    BasisType=split      Semic=F
L=0  Nsemic=0  Cnfigmx=1
          n=1  nzeta=2  polorb=1
            splnorm:   0.15000    
               vcte:    0.0000    
               rinn:    0.0000    
                rcs:    0.0000      0.0000    
            lambdas:    1.0000      1.0000    
-------------------------------------------------------------------------------
L=0  Nkbl=1  erefs: 0.17977+309
L=1  Nkbl=1  erefs: 0.17977+309
L=2  Nkbl=1  erefs: 0.17977+309
===============================================================================
</basis_specs>

atom: Called for H                     (Z =   1)

read_vps: Pseudopotential generation method:
read_vps: ATM3      Troullier-Martins                       
Total valence charge:    1.00000

xc_check: Exchange-correlation functional:
xc_check: GGA Perdew, Burke & Ernzerhof 1996
xc_check: WARNING: Pseudopotential generated with Ceperley-Alder functional
V l=0 = -2*Zval/r beyond r=  1.2343
V l=1 = -2*Zval/r beyond r=  1.2189
V l=2 = -2*Zval/r beyond r=  1.2189
All V_l potentials equal beyond r=  1.2343
This should be close to max(r_c) in ps generation
All pots = -2*Zval/r beyond r=  1.2343

VLOCAL1: 99.0% of the norm of Vloc inside     28.493 Ry
VLOCAL1: 99.9% of the norm of Vloc inside     64.935 Ry
atom: Maximum radius for 4*pi*r*r*local-pseudopot. charge    1.45251
atom: Maximum radius for r*vlocal+2*Zval:    1.21892
GHOST: No ghost state for L =  0
GHOST: No ghost state for L =  1
GHOST: No ghost state for L =  2

KBgen: Kleinman-Bylander projectors: 
   l= 0   rc=  1.364359   el= -0.488086   Ekb= -2.002077   kbcos= -0.347561
   l= 1   rc=  1.434438   el=  0.001075   Ekb= -0.501617   kbcos= -0.021754
   l= 2   rc=  1.470814   el=  0.002010   Ekb= -0.190607   kbcos= -0.002284

KBgen: Total number of  Kleinman-Bylander projectors:    9
atom: -------------------------------------------------------------------------

atom: SANKEY-TYPE ORBITALS:
atom: Selected multiple-zeta basis: split     

SPLIT: Orbitals with angular momentum L= 0

SPLIT: Basis orbitals for state 1s

SPLIT: PAO cut-off radius determined from an
SPLIT: energy shift=  0.020000 Ry

   izeta = 1
                 lambda =    1.000000
                     rc =    4.708991
                 energy =   -0.469191
                kinetic =    0.984891
    potential(screened) =   -1.454081
       potential(ionic) =   -1.971243

   izeta = 2
                 rmatch =    3.759707
              splitnorm =    0.150000
                 energy =   -0.351800
                kinetic =    1.584822
    potential(screened) =   -1.936622
       potential(ionic) =   -2.473950

POLgen: Perturbative polarization orbital with L=  1

POLgen: Polarization orbital for state 1s

   izeta = 1
                     rc =    4.708991
                 energy =    0.760113
                kinetic =    1.483507
    potential(screened) =   -0.723395
       potential(ionic) =   -1.207344
atom: Total number of Sankey-type orbitals:  5

atm_pop: Valence configuration (for local Pseudopot. screening):
 1s( 1.00)                                                            
Vna: chval, zval:    1.00000   1.00000

Vna:  Cut-off radius for the neutral-atom potential:   4.708991

atom: _________________________________________________________________________

<basis_specs>
===============================================================================
O                    Z=   8    Mass=  16.000        Charge= 0.17977+309
Lmxo=1 Lmxkb= 3    BasisType=split      Semic=F
L=0  Nsemic=0  Cnfigmx=2
          n=1  nzeta=2  polorb=0
            splnorm:   0.15000    
               vcte:    0.0000    
               rinn:    0.0000    
                rcs:    0.0000      0.0000    
            lambdas:    1.0000      1.0000    
L=1  Nsemic=0  Cnfigmx=2
          n=1  nzeta=2  polorb=1
            splnorm:   0.15000    
               vcte:    0.0000    
               rinn:    0.0000    
                rcs:    0.0000      0.0000    
            lambdas:    1.0000      1.0000    
-------------------------------------------------------------------------------
L=0  Nkbl=1  erefs: 0.17977+309
L=1  Nkbl=1  erefs: 0.17977+309
L=2  Nkbl=1  erefs: 0.17977+309
L=3  Nkbl=1  erefs: 0.17977+309
===============================================================================
</basis_specs>

atom: Called for O                     (Z =   8)

read_vps: Pseudopotential generation method:
read_vps: ATM3      Troullier-Martins                       
Total valence charge:    6.00000

xc_check: Exchange-correlation functional:
xc_check: GGA Perdew, Burke & Ernzerhof 1996
xc_check: WARNING: Pseudopotential generated with Ceperley-Alder functional
V l=0 = -2*Zval/r beyond r=  1.1278
V l=1 = -2*Zval/r beyond r=  1.1278
V l=2 = -2*Zval/r beyond r=  1.1278
V l=3 = -2*Zval/r beyond r=  1.1138
All V_l potentials equal beyond r=  1.1278
This should be close to max(r_c) in ps generation
All pots = -2*Zval/r beyond r=  1.1278

VLOCAL1: 99.0% of the norm of Vloc inside     34.126 Ry
VLOCAL1: 99.9% of the norm of Vloc inside     77.774 Ry
atom: Maximum radius for 4*pi*r*r*local-pseudopot. charge    1.37759
atom: Maximum radius for r*vlocal+2*Zval:    1.18566
GHOST: No ghost state for L =  0
GHOST: No ghost state for L =  1
GHOST: No ghost state for L =  2
GHOST: No ghost state for L =  3

KBgen: Kleinman-Bylander projectors: 
   l= 0   rc=  1.294105   el= -1.764717   Ekb=  9.120606   kbcos=  0.329038
   l= 1   rc=  1.294105   el= -0.698441   Ekb= -8.119783   kbcos= -0.400859
   l= 2   rc=  1.448233   el=  0.002031   Ekb= -2.039067   kbcos= -0.003490
   l= 3   rc=  1.561052   el=  0.003153   Ekb= -0.799361   kbcos= -0.000345

KBgen: Total number of  Kleinman-Bylander projectors:   16
atom: -------------------------------------------------------------------------

atom: SANKEY-TYPE ORBITALS:
atom: Selected multiple-zeta basis: split     

SPLIT: Orbitals with angular momentum L= 0

SPLIT: Basis orbitals for state 2s

SPLIT: PAO cut-off radius determined from an
SPLIT: energy shift=  0.020000 Ry

   izeta = 1
                 lambda =    1.000000
                     rc =    3.305093
                 energy =   -1.747165
                kinetic =    1.636523
    potential(screened) =   -3.383688
       potential(ionic) =  -11.346558

   izeta = 2
                 rmatch =    2.479194
              splitnorm =    0.150000
                 energy =   -1.484948
                kinetic =    2.492446
    potential(screened) =   -3.977393
       potential(ionic) =  -12.521955

SPLIT: Orbitals with angular momentum L= 1

SPLIT: Basis orbitals for state 2p

SPLIT: PAO cut-off radius determined from an
SPLIT: energy shift=  0.020000 Ry

   izeta = 1
                 lambda =    1.000000
                     rc =    3.840021
                 energy =   -0.679240
                kinetic =    5.142096
    potential(screened) =   -5.821336
       potential(ionic) =  -13.650628

   izeta = 2
                 rmatch =    2.479194
              splitnorm =    0.150000
                 energy =   -0.370047
                kinetic =    7.736199
    potential(screened) =   -8.106246
       potential(ionic) =  -16.831468

POLgen: Perturbative polarization orbital with L=  2

POLgen: Polarization orbital for state 2p

   izeta = 1
                     rc =    3.840021
                 energy =    2.519349
                kinetic =    4.956526
    potential(screened) =   -2.437177
       potential(ionic) =   -8.829757
atom: Total number of Sankey-type orbitals: 13

atm_pop: Valence configuration (for local Pseudopot. screening):
 2s( 2.00)                                                            
 2p( 4.00)                                                            
Vna: chval, zval:    6.00000   6.00000

Vna:  Cut-off radius for the neutral-atom potential:   3.840021

atom: _________________________________________________________________________

prinput: Basis input ----------------------------------------------------------

PAO.BasisType split     

%block ChemicalSpeciesLabel
    1    1 H                       # Species index, atomic number, species label
    2    8 O                       # Species index, atomic number, species label
%endblock ChemicalSpeciesLabel

%block PAO.Basis                 # Define Basis set
H                     1                    # Species label, number of l-shells
 n=1   0   2 P   1                   # n, l, Nzeta, Polarization, NzetaPol
   4.709      3.760   
   1.000      1.000   
O                     2                    # Species label, number of l-shells
 n=2   0   2                         # n, l, Nzeta 
   3.305      2.479   
   1.000      1.000   
 n=2   1   2 P   1                   # n, l, Nzeta, Polarization, NzetaPol
   3.840      2.479   
   1.000      1.000   
%endblock PAO.Basis

prinput: ----------------------------------------------------------------------

coor:   Atomic-coordinates input format  =     Fractional

siesta: Atomic coordinates (Bohr) and species
siesta:      8.46985   7.81502   7.85135  1        1
siesta:     10.78865   7.77974   9.60147  1        2
siesta:      8.96892   7.77974   9.60147  2        3

siesta: System type = molecule  

initatomlists: Number of atoms, orbitals, and projectors:      3    23    34

siesta: ******************** Simulation parameters ****************************
siesta:
siesta: The following are some of the parameters of the simulation.
siesta: A complete list of the parameters used, including default values,
siesta: can be found in file out.fdf
siesta:
redata: Non-Collinear-spin run           =     F
redata: SpinPolarized (Up/Down) run      =     F
redata: Number of spin components        =     1
redata: Long output                      =     F
redata: Number of Atomic Species         =        2
redata: Charge density info will appear in .RHO file
redata: Write Mulliken Pop.              =     NO
redata: Mesh Cutoff                      =   100.0000  Ry
redata: Net charge of the system         =     0.0000 |e|
redata: Max. number of SCF Iter          =       50
redata: SCF convergence failure will abort job
redata: Mixing is linear
redata: Mix DM in first SCF step ?       =     F
redata: Write Pulay info on disk?        =     F
redata: Discard 1st Pulay DM after  kick =     F
redata: New DM Mixing Weight             =     0.2500
redata: New DM Occupancy tolerance       = 0.000000000001
redata: No kicks to SCF
redata: DM Mixing Weight for Kicks       =     0.5000
redata: DM Tolerance for SCF             =     0.000100
redata: Require Energy convergence for SCF =     F
redata: DM Energy tolerance for SCF      =     0.000100 eV
redata: Require Harris convergence for SCF =     F
redata: DM Harris energy tolerance for SCF =     0.000100 eV
redata: Using Saved Data (generic)   =     F
redata: Use continuation files for DM    =     F
redata: Neglect nonoverlap interactions  =     F
redata: =================Using evolve method to do TDDFT work=================
redata: TDAP: The Final Step of the TDDFT calculation       =     1500
redata: TDAP: The Step length of the TDDFT calculation      =     0.0100fs
redata: TDAP: Whether to read WaveFunction from file        =	    F
redata: TDAP: Write WaveFunction every   1000 steps
 redata: TDAP: The number of promoted electrons              =    0.0000000000000000     
 redata: TDAP: Electrons get promoted From Band              =            0
 redata: TDAP: Electrons get promoted to Band                =            0
redata: TDAP: The number of empty bands to consider         =        5
redata: TDAP: zmin of efield           = 0.000000000000
redata: TDAP: zmax of efield              = 1.000000000000
redata: TDAP: Whether to do FSSH      =	    F
redata: TDAP: How many steps per dephase     =	       0
redata: =======================================================================
redata: Electronic Temperature           =     0.0019  Ry
redata: Fix the spin of the system       =     F
redata: Dynamics option                  =     Verlet MD run
redata: Initial MD time step             =        1
redata:   Final MD time step             =     1500
redata: Length of MD time step           =     0.0000  fs
redata: Initial Temperature of MD run    =   300.0000  K
redata: Perform a MD quench              =     F
redata: ***********************************************************************
Total number of electrons:     8.000000
Total ionic charge:     8.000000

* ProcessorY, Blocksize:    2   1

 Kpoints in:            1 . Kpoints trimmed:            1

siesta: k-grid: Number of k-points =     1
siesta: k-grid: Cutoff (effective) =     5.000 Ang
siesta: k-grid: Supercell and displacements
siesta: k-grid:    1   0   0      0.000
siesta: k-grid:    0   1   0      0.000
siesta: k-grid:    0   0   1      0.000

* Maximum dynamic memory allocated =     2 MB
 =================================================================================================
 ....................................-!$$$$Q$C!-..................................................
 ................................!$$$$$$$$$$$$$$$$Q$-.............................................
 .............................:$$$$$$$-.-$$$.$$$$$7$$$7...........................................
 ...........................>$$Q.$$$$$...$Q$.$$$$$!.-$$$-.........................................
 ...........................$$Q..$$$$$....!-.$$$$$!...$$$?........................................
 ...........................$$!..$$$$$.......$$$$$!...-Q$$$.......................................
 ...........................Q-...$$$$$.......$$$$$:....$$$$$......................................
 ................................$$$$$.......$$$$$!....7$$$Q-.......:$$$$-...............!$Q$$$$-.
 ................................$$$$$.......$$$$$!....!$$$$?.......$$$$$$......7$$$$$$:...$$$$$-.
 ................................$$$$$.......$$$$$!....-$$$$$......7$$$$$$O.......Q$$$$....C$$$$..
 ................................$$$$$.......$$$$$!....-$$$$$.....!$$:-$$$$C......$$$$Q--:$$Q$....
 ................................$$$$$.......$$$$$!....-$$$$$.....$$>..-$$$$:.....$$$$$...........
 ................................$$$$$.......$$$$$!....!$$$$7....$$$Q$$$$$$$$:....$$$$$...........
 ................................$$$$$.......$$$$$!....7$$$$-...!$$>.....$$$$$$$>$$$$$$?..........
 ................................$$$$$.......$$$$$:....$Q$$$....$$$.....$:........................
 ...................-??>.........$$$$$.......$$$$$!...-Q$$$....!$$Q$-.............................
 ..........>??...................$$$$$.......$$$$$!...$$Q$....C$-.................................
 ....!??..................:?....CQ$$$$:......$$$$$!.$$$$-...................77....................
 ?7?..........>....77...........$$$$$$$-....:$$$$$$$$$-..............!..........??>...............
 .........7...?!.........!.........-$Q$$....$$$$Q7........7.........?7...>.........:7?............
 ..........::........?......?.....7.............:?....-7......!........7...7..........?7-.........
 .....7...?........?......7....?!............!.....!>....7......-........?...?.........!7?........
 ....?...:.........7......!.....7.......-!:-.............?......?.............:.........>??.......
 ....7....>.........?................7?!-..->?>........-.......7.........7...>!..........??>......
 .....?...............?7....................................?7..............>?...........??.......
 .......?..................7??!......................>??!.................-?............??........
 .........77.......:............................................:.......7?............!7?.........
 .............??....................................................?7..............>?7...........
 ?.................!??!......................................7?7-................!?:..............
 ...!7......................!?????7!...........-!?7???7:......................7...................
 .........7-............................................................!7........................
 .................:-............................................>-................................
 .................................................................................................
 The following papers describe the method and practical implementation of the TDAP package:
 C. Lian, M.X. Guan, S.Q. Hu, J. Zhang, S. Meng. Photoexcitation in solids: First-principles quantum simulations by real-time TDDFT. Adv. Theo. Simul. 1, 1800055 (2018).
 W. Ma, J. Zhang, L. Yan, Y. Jiao, Y. Gao, S. Meng. Recent progresses in real-time local-basis implementation of time dependent density functional theory for electron-nucleus dynamics. Comp. Mater. Sci. 112, 478 (2016).
 J. Ren, E. Kaxiras, S. Meng. Optical properties of clusters and molecules from real-time time-dependent density functional theory using a self-consistent field. Molecular Physics 108, 1829 (2010).
 S. Meng, E. Kaxiras. Local basis-set and real time implementation of time-dependent density-functional theory for excited state dynamics simulations. J. Chem. Phys. 129, 054110 (2008).
 =================================================================================================

siesta:                 ==============================
                            Begin MD step =      1
                        ==============================

outcell: Unit cell vectors (Ang):
       10.000000    0.000000    0.000000
        0.000000   10.000000    0.000000
        0.000000    0.000000   10.000000

outcell: Cell vector modules (Ang)   :   10.000000   10.000000   10.000000
outcell: Cell angles (23,13,12) (deg):     90.0000     90.0000     90.0000
outcell: Cell volume (Ang**3)        :   1000.0000
New_DM. Step:     1
Initializing Density Matrix...

InitMesh: MESH =    64 x    64 x    64 =      262144
InitMesh: Mesh cutoff (required, used) =   100.000   113.204 Ry

efield: External electric field =    0.000000    0.000000    0.002000 Ry/Bohr/e

* Maximum dynamic memory allocated =     4 MB

stepf: Fermi-Dirac step function

fermid: Calculating for lowest-exciton excited state

stepf: Fermi-Dirac step function

siesta: Program's energy decomposition (eV):
siesta: Ebs     =      -117.555502
siesta: Eions   =       815.854478
siesta: Ena     =       170.060777
siesta: Ekin    =       351.179876
siesta: Enl     =       -55.092970
siesta: DEna    =        -0.000003
siesta: DUscf   =         0.000000
siesta: DUext   =         0.000000
siesta: Exc     =      -113.802961
siesta: eta*DQ  =         0.000000
siesta: Emadel  =         0.000000
siesta: Emeta   =         0.000000
siesta: Emolmec =         0.000000
siesta: Ekinion =         0.000000
siesta: Eharris =      -468.701590
siesta: Etot    =      -463.509760
siesta: FreeEng =      -463.509760

siesta: iscf   Eharris(eV)      E_KS(eV)   FreeEng(eV)   dDmax  Ef(eV)
siesta:    1     -468.7016     -463.5098     -463.5098  1.3579 -2.8697
timer: Routine,Calls,Time,% = IterSCF        1       8.625  83.51
elaps: Routine,Calls,Wall,% = IterSCF        1       0.876  84.72
siesta:    2     -469.0038     -467.7674     -467.7674  0.1376  0.5584
siesta:    3     -468.2920     -467.9379     -467.9379  0.0317 -0.6634
siesta:    4     -468.2315     -468.0149     -468.0149  0.0121 -0.9988
siesta:    5     -468.2254     -468.0679     -468.0679  0.0142 -1.0901
siesta:    6     -468.2245     -468.1071     -468.1071  0.0118 -1.1119
siesta:    7     -468.2244     -468.1364     -468.1364  0.0090 -1.1150
siesta:    8     -468.2243     -468.1584     -468.1584  0.0067 -1.1137
siesta:    9     -468.2243     -468.1749     -468.1749  0.0049 -1.1119
siesta:   10     -468.2243     -468.1872     -468.1872  0.0036 -1.1105
siesta:   11     -468.2243     -468.1965     -468.1965  0.0026 -1.1096
siesta:   12     -468.2243     -468.2035     -468.2035  0.0019 -1.1091
siesta:   13     -468.2243     -468.2086     -468.2086  0.0014 -1.1087
siesta:   14     -468.2243     -468.2126     -468.2126  0.0011 -1.1085
siesta:   15     -468.2243     -468.2155     -468.2155  0.0008 -1.1084
siesta:   16     -468.2243     -468.2177     -468.2177  0.0006 -1.1083
siesta:   17     -468.2243     -468.2193     -468.2193  0.0004 -1.1083
siesta:   18     -468.2243     -468.2206     -468.2206  0.0003 -1.1082
siesta:   19     -468.2243     -468.2215     -468.2215  0.0002 -1.1082
siesta:   20     -468.2243     -468.2222     -468.2222  0.0002 -1.1082
siesta:   21     -468.2243     -468.2227     -468.2227  0.0001 -1.1082
siesta:   22     -468.2243     -468.2231     -468.2231  0.0001 -1.1082
siesta:   23     -468.2243     -468.2234     -468.2234  0.0001 -1.1082

siesta: E_KS(eV) =             -468.2236

siesta: E_KS - E_eggbox =      -468.2236

siesta: Atomic forces (eV/Ang):
----------------------------------------
   Tot   -0.063775   -0.464372   -0.054005
----------------------------------------
   Max    0.461211
   Res    0.158029    sqrt( Sum f_i^2 / 3N )
----------------------------------------
   Max    0.461211    constrained

Stress-tensor-Voigt (kbar):        0.01        0.01        0.08        0.10        0.05       -0.01
(Free)E + p*V (eV/cell)     -468.2446
Target enthalpy (eV/cell)     -468.2236

siesta: Stress tensor (static) (eV/Ang**3):
         0.000038    0.000000    0.000011
         0.000000    0.000111   -0.000000
         0.000011   -0.000000    0.000068

siesta: Pressure (static):         -0.11578902  kBar

siesta: Stress tensor (total) (eV/Ang**3):
         0.000004    0.000060   -0.000006
         0.000060    0.000008    0.000031
        -0.000006    0.000031    0.000051

siesta: Pressure (total):         -0.03354977  kBar

TDAP : Electric dipole (a.u.)  =    0.318030    0.008582   -0.412174
TDAP : Electric dipole (Debye) =    0.808352    0.021814   -1.047642
TDAP : Energy  :  -24.21 -12.51  -8.08  -6.16   2.03   4.24  10.66  12.37
TDAP : Partition :    2.00   2.00   2.00   2.00   0.00   0.00   0.00   0.00

siesta: Temp_ion =     300.000 K

* Maximum dynamic memory allocated =     4 MB

siesta:                 ==============================
                            Begin MD step =      2
                        ==============================

outcell: Unit cell vectors (Ang):
       10.000000    0.000000    0.000000
        0.000000   10.000000    0.000000
        0.000000    0.000000   10.000000

outcell: Cell vector modules (Ang)   :   10.000000   10.000000   10.000000
outcell: Cell angles (23,13,12) (deg):     90.0000     90.0000     90.0000
outcell: Cell volume (Ang**3)        :   1000.0000
New_DM. Step:     2
Re-using DM from previous geometry...
Re-using DM without extrapolation for lack of history

efield: External electric field =    0.000000    0.000000    0.002000 Ry/Bohr/e
TDAP: read envelope from 'TD.DeltaElectricField'

TDAP: Electric Field

TDAP: External EField    0.000000    0.000000    0.002000 Ry/Bohr/e

siesta: iscf   Eharris(eV)      E_KS(eV)   FreeEng(eV)   dDmax  Ef(eV)
siesta:    1     -468.2243     -468.2236     -468.2236  0.0000 -1.1082

siesta: E_KS(eV) =             -468.2243

siesta: Atomic forces (eV/Ang):
----------------------------------------
   Tot   -0.063780   -0.464362   -0.054015
----------------------------------------
   Max    0.461188
   Res    0.158012    sqrt( Sum f_i^2 / 3N )
----------------------------------------
   Max    0.461188    constrained

Stress-tensor-Voigt (kbar):        0.01        0.01        0.08        0.10        0.05       -0.01
(Free)E + p*V (eV/cell)     -468.2457
Target enthalpy (eV/cell)     -468.2243

siesta: Stress tensor (static) (eV/Ang**3):
         0.000039    0.000000    0.000011
         0.000000    0.000111   -0.000000
         0.000011   -0.000000    0.000068

siesta: Pressure (static):         -0.11646147  kBar

siesta: Stress tensor (total) (eV/Ang**3):
         0.000004    0.000060   -0.000006
         0.000060    0.000008    0.000031
        -0.000006    0.000031    0.000051

siesta: Pressure (total):         -0.03422222  kBar

TDAP : Electric dipole (a.u.)  =    0.318031    0.008582   -0.412175
TDAP : Electric dipole (Debye) =    0.808354    0.021814   -1.047645
TDAP : Energy  :  -24.21 -12.51  -8.08  -6.16   2.03   4.24  10.66  12.37
TDAP : Partition :    2.00   2.00   2.00   2.00   0.00   0.00   0.00   0.00

siesta: Temp_ion =     300.000 K

* Maximum dynamic memory allocated =     4 MB

siesta:                 ==============================
                            Begin MD step =      3
                        ==============================

outcell: Unit cell vectors (Ang):
       10.000000    0.000000    0.000000
        0.000000   10.000000    0.000000
        0.000000    0.000000   10.000000

outcell: Cell vector modules (Ang)   :   10.000000   10.000000   10.000000
outcell: Cell angles (23,13,12) (deg):     90.0000     90.0000     90.0000
outcell: Cell volume (Ang**3)        :   1000.0000
New_DM. Step:     3
Re-using DM from previous geometry...
Extrapolating Density Matrix...

TDAP: Electric Field

TDAP: External EField    0.000000    0.000000    0.000000 Ry/Bohr/e

siesta: iscf   Eharris(eV)      E_KS(eV)   FreeEng(eV)   dDmax  Ef(eV)
siesta:    1     -468.2355     -468.2362     -468.2362  0.0000 -1.1082

siesta: E_KS(eV) =             -468.2355

siesta: Atomic forces (eV/Ang):
----------------------------------------
   Tot   -0.063786   -0.464388   -0.053966
----------------------------------------
   Max    0.461485
   Res    0.156462    sqrt( Sum f_i^2 / 3N )
----------------------------------------
   Max    0.461485    constrained

Stress-tensor-Voigt (kbar):        0.03        0.03        0.09        0.10        0.05       -0.03
(Free)E + p*V (eV/cell)     -468.2670
Target enthalpy (eV/cell)     -468.2355

siesta: Stress tensor (static) (eV/Ang**3):
         0.000055    0.000001    0.000002
         0.000001    0.000122    0.000000
        -0.000003   -0.000000    0.000072

siesta: Pressure (static):         -0.13273710  kBar

siesta: Stress tensor (total) (eV/Ang**3):
         0.000020    0.000060   -0.000014
         0.000060    0.000020    0.000032
        -0.000020    0.000031    0.000055

siesta: Pressure (total):         -0.05049785  kBar

TDAP : Electric dipole (a.u.)  =    0.318037    0.008582   -0.412810
TDAP : Electric dipole (Debye) =    0.808371    0.021813   -1.049258
TDAP : Energy  :  -24.22 -12.52  -8.11  -6.17   2.04   4.25  10.67  12.36
TDAP : Partition :    2.00   2.00   2.00   2.00   0.00   0.00   0.00   0.00

siesta: Temp_ion =     300.000 K

* Maximum dynamic memory allocated =     4 MB

siesta:                 ==============================
                            Begin MD step =      4
                        ==============================

outcell: Unit cell vectors (Ang):
       10.000000    0.000000    0.000000
        0.000000   10.000000    0.000000
        0.000000    0.000000   10.000000

outcell: Cell vector modules (Ang)   :   10.000000   10.000000   10.000000
outcell: Cell angles (23,13,12) (deg):     90.0000     90.0000     90.0000
outcell: Cell volume (Ang**3)        :   1000.0000
New_DM. Step:     4
Re-using DM from previous geometry...
Extrapolating Density Matrix...

TDAP: Electric Field

TDAP: External EField    0.000000    0.000000    0.000000 Ry/Bohr/e

siesta: iscf   Eharris(eV)      E_KS(eV)   FreeEng(eV)   dDmax  Ef(eV)
siesta:    1     -468.2355     -468.2355     -468.2355  0.0000 -1.1082

siesta: E_KS(eV) =             -468.2355

siesta: Atomic forces (eV/Ang):
----------------------------------------
   Tot   -0.063842   -0.464441   -0.053805
----------------------------------------
   Max    0.461495
   Res    0.156515    sqrt( Sum f_i^2 / 3N )
----------------------------------------
   Max    0.461495    constrained

Stress-tensor-Voigt (kbar):        0.03        0.03        0.09        0.10        0.05       -0.03
(Free)E + p*V (eV/cell)     -468.2665
Target enthalpy (eV/cell)     -468.2355

siesta: Stress tensor (static) (eV/Ang**3):
         0.000053    0.000001    0.000003
         0.000001    0.000122    0.000000
        -0.000000   -0.000000    0.000071

siesta: Pressure (static):         -0.13190374  kBar

siesta: Stress tensor (total) (eV/Ang**3):
         0.000019    0.000060   -0.000013
         0.000060    0.000019    0.000032
        -0.000017    0.000031    0.000054

siesta: Pressure (total):         -0.04966450  kBar

TDAP : Electric dipole (a.u.)  =    0.318034    0.008582   -0.414442
TDAP : Electric dipole (Debye) =    0.808361    0.021812   -1.053408
TDAP : Energy  :  -24.22 -12.52  -8.10  -6.17   2.04   4.25  10.67  12.36
TDAP : Partition :    2.00   2.00   2.00   2.00   0.00   0.00   0.00   0.00

siesta: Temp_ion =     300.000 K

* Maximum dynamic memory allocated =     4 MB

siesta:                 ==============================
                            Begin MD step =      5
                        ==============================

outcell: Unit cell vectors (Ang):
       10.000000    0.000000    0.000000
        0.000000   10.000000    0.000000
        0.000000    0.000000   10.000000

outcell: Cell vector modules (Ang)   :   10.000000   10.000000   10.000000
outcell: Cell angles (23,13,12) (deg):     90.0000     90.0000     90.0000
outcell: Cell volume (Ang**3)        :   1000.0000
New_DM. Step:     5
Re-using DM from previous geometry...
Extrapolating Density Matrix...

TDAP: Electric Field

TDAP: External EField    0.000000    0.000000    0.000000 Ry/Bohr/e

siesta: iscf   Eharris(eV)      E_KS(eV)   FreeEng(eV)   dDmax  Ef(eV)
siesta:    1     -468.2355     -468.2355     -468.2355  0.0001 -1.1082

siesta: E_KS(eV) =             -468.2355

siesta: Atomic forces (eV/Ang):
----------------------------------------
   Tot   -0.063917   -0.464419   -0.053472
----------------------------------------
   Max    0.461434
   Res    0.156600    sqrt( Sum f_i^2 / 3N )
----------------------------------------
   Max    0.461434    constrained

Stress-tensor-Voigt (kbar):        0.03        0.03        0.08        0.10        0.05       -0.02
(Free)E + p*V (eV/cell)     -468.2656
Target enthalpy (eV/cell)     -468.2355

siesta: Stress tensor (static) (eV/Ang**3):
         0.000052    0.000000    0.000005
         0.000000    0.000122   -0.000000
         0.000004   -0.000000    0.000070

siesta: Pressure (static):         -0.13046060  kBar

siesta: Stress tensor (total) (eV/Ang**3):
         0.000018    0.000060   -0.000012
         0.000060    0.000019    0.000032
        -0.000012    0.000032    0.000053

siesta: Pressure (total):         -0.04822135  kBar

TDAP : Electric dipole (a.u.)  =    0.317956    0.008585   -0.416432
TDAP : Electric dipole (Debye) =    0.808164    0.021821   -1.058466
TDAP : Energy  :  -24.22 -12.52  -8.10  -6.17   2.04   4.25  10.67  12.35
TDAP : Partition :    2.00   2.00   2.00   2.00   0.00   0.00   0.00   0.00

siesta: Temp_ion =     300.000 K

* Maximum dynamic memory allocated =     4 MB

siesta:                 ==============================
                            Begin MD step =      6
                        ==============================

outcell: Unit cell vectors (Ang):
       10.000000    0.000000    0.000000
        0.000000   10.000000    0.000000
        0.000000    0.000000   10.000000

outcell: Cell vector modules (Ang)   :   10.000000   10.000000   10.000000
outcell: Cell angles (23,13,12) (deg):     90.0000     90.0000     90.0000
outcell: Cell volume (Ang**3)        :   1000.0000
New_DM. Step:     6
Re-using DM from previous geometry...
Extrapolating Density Matrix...

TDAP: Electric Field

TDAP: External EField    0.000000    0.000000    0.000000 Ry/Bohr/e

siesta: iscf   Eharris(eV)      E_KS(eV)   FreeEng(eV)   dDmax  Ef(eV)
siesta:    1     -468.2355     -468.2355     -468.2355  0.0000 -1.1082

siesta: E_KS(eV) =             -468.2355

siesta: Atomic forces (eV/Ang):
----------------------------------------
   Tot   -0.063888   -0.464371   -0.053283
----------------------------------------
   Max    0.461317
   Res    0.156703    sqrt( Sum f_i^2 / 3N )
----------------------------------------
   Max    0.461317    constrained

Stress-tensor-Voigt (kbar):        0.03        0.03        0.08        0.10        0.05       -0.01
(Free)E + p*V (eV/cell)     -468.2649
Target enthalpy (eV/cell)     -468.2355

siesta: Stress tensor (static) (eV/Ang**3):
         0.000051    0.000000    0.000007
         0.000000    0.000122   -0.000000
         0.000009   -0.000000    0.000068

siesta: Pressure (static):         -0.12935494  kBar

siesta: Stress tensor (total) (eV/Ang**3):
         0.000017    0.000060   -0.000010
         0.000060    0.000019    0.000031
        -0.000008    0.000032    0.000052

siesta: Pressure (total):         -0.04711569  kBar

TDAP : Electric dipole (a.u.)  =    0.317741    0.008596   -0.418227
TDAP : Electric dipole (Debye) =    0.807617    0.021848   -1.063027
TDAP : Energy  :  -24.22 -12.52  -8.10  -6.17   2.04   4.25  10.67  12.35
TDAP : Partition :    2.00   2.00   2.00   2.00   0.00   0.00   0.00   0.00

siesta: Temp_ion =     300.000 K

* Maximum dynamic memory allocated =     4 MB

siesta:                 ==============================
                            Begin MD step =      7
                        ==============================

outcell: Unit cell vectors (Ang):
       10.000000    0.000000    0.000000
        0.000000   10.000000    0.000000
        0.000000    0.000000   10.000000

outcell: Cell vector modules (Ang)   :   10.000000   10.000000   10.000000
outcell: Cell angles (23,13,12) (deg):     90.0000     90.0000     90.0000
outcell: Cell volume (Ang**3)        :   1000.0000
New_DM. Step:     7
Re-using DM from previous geometry...
Extrapolating Density Matrix...

TDAP: Electric Field

TDAP: External EField    0.000000    0.000000    0.000000 Ry/Bohr/e

siesta: iscf   Eharris(eV)      E_KS(eV)   FreeEng(eV)   dDmax  Ef(eV)
siesta:    1     -468.2355     -468.2355     -468.2355  0.0000 -1.1082

siesta: E_KS(eV) =             -468.2355

siesta: Atomic forces (eV/Ang):
----------------------------------------
   Tot   -0.063818   -0.464343   -0.053357
----------------------------------------
   Max    0.461186
   Res    0.156802    sqrt( Sum f_i^2 / 3N )
----------------------------------------
   Max    0.461186    constrained

Stress-tensor-Voigt (kbar):        0.03        0.03        0.08        0.10        0.05       -0.01
(Free)E + p*V (eV/cell)     -468.2649
Target enthalpy (eV/cell)     -468.2355

siesta: Stress tensor (static) (eV/Ang**3):
         0.000051    0.000000    0.000008
         0.000000    0.000122   -0.000000
         0.000011   -0.000000    0.000069

siesta: Pressure (static):         -0.12927553  kBar

siesta: Stress tensor (total) (eV/Ang**3):
         0.000017    0.000060   -0.000008
         0.000060    0.000019    0.000031
        -0.000006    0.000032    0.000052

siesta: Pressure (total):         -0.04703628  kBar

TDAP : Electric dipole (a.u.)  =    0.317379    0.008612   -0.419663
TDAP : Electric dipole (Debye) =    0.806697    0.021890   -1.066679
TDAP : Energy  :  -24.22 -12.52  -8.10  -6.17   2.04   4.25  10.67  12.35
TDAP : Partition :    2.00   2.00   2.00   2.00   0.00   0.00   0.00   0.00

siesta: Temp_ion =     300.000 K

* Maximum dynamic memory allocated =     4 MB

siesta:                 ==============================
                            Begin MD step =      8
                        ==============================

outcell: Unit cell vectors (Ang):
       10.000000    0.000000    0.000000
        0.000000   10.000000    0.000000
        0.000000    0.000000   10.000000

outcell: Cell vector modules (Ang)   :   10.000000   10.000000   10.000000
outcell: Cell angles (23,13,12) (deg):     90.0000     90.0000     90.0000
outcell: Cell volume (Ang**3)        :   1000.0000
New_DM. Step:     8
Re-using DM from previous geometry...
Extrapolating Density Matrix...

TDAP: Electric Field

TDAP: External EField    0.000000    0.000000    0.000000 Ry/Bohr/e

siesta: iscf   Eharris(eV)      E_KS(eV)   FreeEng(eV)   dDmax  Ef(eV)
siesta:    1     -468.2355     -468.2355     -468.2355  0.0001 -1.1082

siesta: E_KS(eV) =             -468.2355

siesta: Atomic forces (eV/Ang):
----------------------------------------
   Tot   -0.063757   -0.464379   -0.053652
----------------------------------------
   Max    0.461119
   Res    0.156906    sqrt( Sum f_i^2 / 3N )
----------------------------------------
   Max    0.461119    constrained

Stress-tensor-Voigt (kbar):        0.03        0.03        0.09        0.10        0.05       -0.01
(Free)E + p*V (eV/cell)     -468.2657
Target enthalpy (eV/cell)     -468.2355

siesta: Stress tensor (static) (eV/Ang**3):
         0.000051    0.000000    0.000010
         0.000000    0.000122   -0.000000
         0.000013   -0.000000    0.000071

siesta: Pressure (static):         -0.13058439  kBar

siesta: Stress tensor (total) (eV/Ang**3):
         0.000017    0.000060   -0.000007
         0.000060    0.000019    0.000031
        -0.000004    0.000031    0.000054

siesta: Pressure (total):         -0.04834514  kBar

TDAP : Electric dipole (a.u.)  =    0.316931    0.008630   -0.420840
TDAP : Electric dipole (Debye) =    0.805560    0.021935   -1.069669
TDAP : Energy  :  -24.22 -12.52  -8.10  -6.17   2.04   4.25  10.67  12.36
TDAP : Partition :    2.00   2.00   2.00   2.00   0.00   0.00   0.00   0.00

siesta: Temp_ion =     300.000 K

* Maximum dynamic memory allocated =     4 MB

siesta:                 ==============================
                            Begin MD step =      9
                        ==============================

outcell: Unit cell vectors (Ang):
       10.000000    0.000000    0.000000
        0.000000   10.000000    0.000000
        0.000000    0.000000   10.000000

outcell: Cell vector modules (Ang)   :   10.000000   10.000000   10.000000
outcell: Cell angles (23,13,12) (deg):     90.0000     90.0000     90.0000
outcell: Cell volume (Ang**3)        :   1000.0000
New_DM. Step:     9
Re-using DM from previous geometry...
Extrapolating Density Matrix...

TDAP: Electric Field

TDAP: External EField    0.000000    0.000000    0.000000 Ry/Bohr/e

siesta: iscf   Eharris(eV)      E_KS(eV)   FreeEng(eV)   dDmax  Ef(eV)
siesta:    1     -468.2355     -468.2355     -468.2355  0.0001 -1.1082

siesta: E_KS(eV) =             -468.2355

siesta: Atomic forces (eV/Ang):
----------------------------------------
   Tot   -0.063760   -0.464480   -0.053770
----------------------------------------
   Max    0.461131
   Res    0.157012    sqrt( Sum f_i^2 / 3N )
----------------------------------------
   Max    0.461131    constrained

Stress-tensor-Voigt (kbar):        0.03        0.03        0.09        0.10        0.05       -0.00
(Free)E + p*V (eV/cell)     -468.2675
Target enthalpy (eV/cell)     -468.2355

siesta: Stress tensor (static) (eV/Ang**3):
         0.000052    0.000000    0.000011
         0.000000    0.000122   -0.000000
         0.000016   -0.000000    0.000076

siesta: Pressure (static):         -0.13351775  kBar

siesta: Stress tensor (total) (eV/Ang**3):
         0.000018    0.000060   -0.000005
         0.000060    0.000019    0.000031
        -0.000001    0.000031    0.000059

siesta: Pressure (total):         -0.05127850  kBar

TDAP : Electric dipole (a.u.)  =    0.316486    0.008644   -0.421837
TDAP : Electric dipole (Debye) =    0.804427    0.021972   -1.072204
TDAP : Energy  :  -24.21 -12.51  -8.09  -6.16   2.04   4.25  10.67  12.36
TDAP : Partition :    2.00   2.00   2.00   2.00   0.00   0.00   0.00   0.00

siesta: Temp_ion =     300.000 K

* Maximum dynamic memory allocated =     4 MB

siesta:                 ==============================
                            Begin MD step =     10
                        ==============================

outcell: Unit cell vectors (Ang):
       10.000000    0.000000    0.000000
        0.000000   10.000000    0.000000
        0.000000    0.000000   10.000000

outcell: Cell vector modules (Ang)   :   10.000000   10.000000   10.000000
outcell: Cell angles (23,13,12) (deg):     90.0000     90.0000     90.0000
outcell: Cell volume (Ang**3)        :   1000.0000
New_DM. Step:    10
Re-using DM from previous geometry...
Extrapolating Density Matrix...

TDAP: Electric Field

TDAP: External EField    0.000000    0.000000    0.000000 Ry/Bohr/e

siesta: iscf   Eharris(eV)      E_KS(eV)   FreeEng(eV)   dDmax  Ef(eV)
siesta:    1     -468.2355     -468.2355     -468.2355  0.0001 -1.1082

siesta: E_KS(eV) =             -468.2355

siesta: Atomic forces (eV/Ang):
----------------------------------------
   Tot   -0.063746   -0.464593   -0.053706
----------------------------------------
   Max    0.461142
   Res    0.157098    sqrt( Sum f_i^2 / 3N )
----------------------------------------
   Max    0.461142    constrained

Stress-tensor-Voigt (kbar):        0.03        0.03        0.10        0.10        0.05        0.00
(Free)E + p*V (eV/cell)     -468.2702
Target enthalpy (eV/cell)     -468.2355

siesta: Stress tensor (static) (eV/Ang**3):
         0.000054    0.000000    0.000013
         0.000000    0.000122   -0.000000
         0.000019   -0.000000    0.000082

siesta: Pressure (static):         -0.13773645  kBar

siesta: Stress tensor (total) (eV/Ang**3):
         0.000019    0.000060   -0.000004
         0.000060    0.000019    0.000031
         0.000002    0.000031    0.000065

siesta: Pressure (total):         -0.05549720  kBar

TDAP : Electric dipole (a.u.)  =    0.316084    0.008655   -0.422592
TDAP : Electric dipole (Debye) =    0.803406    0.021999   -1.074124
TDAP : Energy  :  -24.21 -12.51  -8.09  -6.16   2.04   4.25  10.67  12.36
TDAP : Partition :    2.00   2.00   2.00   2.00   0.00   0.00   0.00   0.00

siesta: Temp_ion =     300.000 K

* Maximum dynamic memory allocated =     4 MB

siesta:                 ==============================
                            Begin MD step =     11
                        ==============================

outcell: Unit cell vectors (Ang):
       10.000000    0.000000    0.000000
        0.000000   10.000000    0.000000
        0.000000    0.000000   10.000000

outcell: Cell vector modules (Ang)   :   10.000000   10.000000   10.000000
outcell: Cell angles (23,13,12) (deg):     90.0000     90.0000     90.0000
outcell: Cell volume (Ang**3)        :   1000.0000
New_DM. Step:    11
Re-using DM from previous geometry...
Extrapolating Density Matrix...

TDAP: Electric Field

TDAP: External EField    0.000000    0.000000    0.000000 Ry/Bohr/e

siesta: iscf   Eharris(eV)      E_KS(eV)   FreeEng(eV)   dDmax  Ef(eV)
siesta:    1     -468.2355     -468.2355     -468.2355  0.0000 -1.1082

siesta: E_KS(eV) =             -468.2355

siesta: Atomic forces (eV/Ang):
----------------------------------------
   Tot   -0.063655   -0.464760   -0.053579
----------------------------------------
   Max    0.461164
   Res    0.157242    sqrt( Sum f_i^2 / 3N )
----------------------------------------
   Max    0.461164    constrained

Stress-tensor-Voigt (kbar):        0.03        0.03        0.11        0.10        0.05        0.01
(Free)E + p*V (eV/cell)     -468.2728
Target enthalpy (eV/cell)     -468.2355

siesta: Stress tensor (static) (eV/Ang**3):
         0.000055    0.000000    0.000015
         0.000000    0.000123   -0.000001
         0.000022   -0.000000    0.000088

siesta: Pressure (static):         -0.14192241  kBar

siesta: Stress tensor (total) (eV/Ang**3):
         0.000021    0.000060   -0.000002
         0.000060    0.000020    0.000031
         0.000005    0.000031    0.000071

siesta: Pressure (total):         -0.05968316  kBar

TDAP : Electric dipole (a.u.)  =    0.315720    0.008664   -0.422937
TDAP : Electric dipole (Debye) =    0.802480    0.022021   -1.074999
TDAP : Energy  :  -24.21 -12.51  -8.08  -6.16   2.04   4.25  10.67  12.36
TDAP : Partition :    2.00   2.00   2.00   2.00   0.00   0.00   0.00   0.00

siesta: Temp_ion =     300.000 K

* Maximum dynamic memory allocated =     4 MB

siesta:                 ==============================
                            Begin MD step =     12
                        ==============================

outcell: Unit cell vectors (Ang):
       10.000000    0.000000    0.000000
        0.000000   10.000000    0.000000
        0.000000    0.000000   10.000000

outcell: Cell vector modules (Ang)   :   10.000000   10.000000   10.000000
outcell: Cell angles (23,13,12) (deg):     90.0000     90.0000     90.0000
outcell: Cell volume (Ang**3)        :   1000.0000
New_DM. Step:    12
Re-using DM from previous geometry...
Extrapolating Density Matrix...

TDAP: Electric Field

TDAP: External EField    0.000000    0.000000    0.000000 Ry/Bohr/e

siesta: iscf   Eharris(eV)      E_KS(eV)   FreeEng(eV)   dDmax  Ef(eV)
siesta:    1     -468.2355     -468.2355     -468.2355  0.0000 -1.1082

siesta: E_KS(eV) =             -468.2355

siesta: Atomic forces (eV/Ang):
----------------------------------------
   Tot   -0.063513   -0.464803   -0.053613
----------------------------------------
   Max    0.461054
   Res    0.157467    sqrt( Sum f_i^2 / 3N )
----------------------------------------
   Max    0.461054    constrained

Stress-tensor-Voigt (kbar):        0.03        0.03        0.12        0.10        0.05        0.01
(Free)E + p*V (eV/cell)     -468.2744
Target enthalpy (eV/cell)     -468.2355

siesta: Stress tensor (static) (eV/Ang**3):
         0.000055    0.000000    0.000016
         0.000000    0.000123   -0.000001
         0.000023   -0.000001    0.000093

siesta: Pressure (static):         -0.14447236  kBar

siesta: Stress tensor (total) (eV/Ang**3):
         0.000021    0.000059   -0.000001
         0.000059    0.000020    0.000031
         0.000006    0.000031    0.000076

siesta: Pressure (total):         -0.06223311  kBar

TDAP : Electric dipole (a.u.)  =    0.315402    0.008670   -0.422731
TDAP : Electric dipole (Debye) =    0.801673    0.022038   -1.074477
TDAP : Energy  :  -24.21 -12.51  -8.08  -6.16   2.04   4.26  10.67  12.36
TDAP : Partition :    2.00   2.00   2.00   2.00   0.00   0.00   0.00   0.00

siesta: Temp_ion =     300.000 K

* Maximum dynamic memory allocated =     4 MB

siesta:                 ==============================
                            Begin MD step =     13
                        ==============================

outcell: Unit cell vectors (Ang):
       10.000000    0.000000    0.000000
        0.000000   10.000000    0.000000
        0.000000    0.000000   10.000000

outcell: Cell vector modules (Ang)   :   10.000000   10.000000   10.000000
outcell: Cell angles (23,13,12) (deg):     90.0000     90.0000     90.0000
outcell: Cell volume (Ang**3)        :   1000.0000
New_DM. Step:    13
Re-using DM from previous geometry...
Extrapolating Density Matrix...

TDAP: Electric Field

TDAP: External EField    0.000000    0.000000    0.000000 Ry/Bohr/e

siesta: iscf   Eharris(eV)      E_KS(eV)   FreeEng(eV)   dDmax  Ef(eV)
siesta:    1     -468.2355     -468.2355     -468.2355  0.0000 -1.1082

siesta: E_KS(eV) =             -468.2355

siesta: Atomic forces (eV/Ang):
----------------------------------------
   Tot   -0.063425   -0.464733   -0.053564
----------------------------------------
   Max    0.460898
   Res    0.157747    sqrt( Sum f_i^2 / 3N )
----------------------------------------
   Max    0.460898    constrained

Stress-tensor-Voigt (kbar):        0.03        0.03        0.13        0.10        0.05        0.01
(Free)E + p*V (eV/cell)     -468.2747
Target enthalpy (eV/cell)     -468.2355

siesta: Stress tensor (static) (eV/Ang**3):
         0.000053    0.000000    0.000016
         0.000000    0.000123   -0.000001
         0.000022   -0.000001    0.000096

siesta: Pressure (static):         -0.14501767  kBar

siesta: Stress tensor (total) (eV/Ang**3):
         0.000019    0.000059   -0.000001
         0.000060    0.000020    0.000031
         0.000005    0.000031    0.000079

siesta: Pressure (total):         -0.06277842  kBar

TDAP : Electric dipole (a.u.)  =    0.315212    0.008672   -0.422027
TDAP : Electric dipole (Debye) =    0.801190    0.022042   -1.072685
TDAP : Energy  :  -24.21 -12.51  -8.09  -6.16   2.04   4.25  10.67  12.36
TDAP : Partition :    2.00   2.00   2.00   2.00   0.00   0.00   0.00   0.00

siesta: Temp_ion =     300.000 K

* Maximum dynamic memory allocated =     4 MB

siesta:                 ==============================
                            Begin MD step =     14
                        ==============================

outcell: Unit cell vectors (Ang):
       10.000000    0.000000    0.000000
        0.000000   10.000000    0.000000
        0.000000    0.000000   10.000000

outcell: Cell vector modules (Ang)   :   10.000000   10.000000   10.000000
outcell: Cell angles (23,13,12) (deg):     90.0000     90.0000     90.0000
outcell: Cell volume (Ang**3)        :   1000.0000
New_DM. Step:    14
Re-using DM from previous geometry...
Extrapolating Density Matrix...

TDAP: Electric Field

TDAP: External EField    0.000000    0.000000    0.000000 Ry/Bohr/e

siesta: iscf   Eharris(eV)      E_KS(eV)   FreeEng(eV)   dDmax  Ef(eV)
siesta:    1     -468.2355     -468.2355     -468.2355  0.0000 -1.1082

siesta: E_KS(eV) =             -468.2355

siesta: Atomic forces (eV/Ang):
----------------------------------------
   Tot   -0.063415   -0.464541   -0.053390
----------------------------------------
   Max    0.460718
   Res    0.157972    sqrt( Sum f_i^2 / 3N )
----------------------------------------
   Max    0.460718    constrained

Stress-tensor-Voigt (kbar):        0.03        0.03        0.13        0.10        0.05        0.00
(Free)E + p*V (eV/cell)     -468.2745
Target enthalpy (eV/cell)     -468.2355

siesta: Stress tensor (static) (eV/Ang**3):
         0.000050    0.000000    0.000015
         0.000000    0.000122   -0.000001
         0.000019   -0.000001    0.000098

siesta: Pressure (static):         -0.14468220  kBar

siesta: Stress tensor (total) (eV/Ang**3):
         0.000016    0.000059   -0.000002
         0.000060    0.000019    0.000031
         0.000002    0.000031    0.000081

siesta: Pressure (total):         -0.06244295  kBar

TDAP : Electric dipole (a.u.)  =    0.315247    0.008667   -0.421112
TDAP : Electric dipole (Debye) =    0.801278    0.022030   -1.070361
TDAP : Energy  :  -24.21 -12.51  -8.09  -6.16   2.04   4.25  10.67  12.36
TDAP : Partition :    2.00   2.00   2.00   2.00   0.00   0.00   0.00   0.00

siesta: Temp_ion =     300.000 K

* Maximum dynamic memory allocated =     4 MB

siesta:                 ==============================
                            Begin MD step =     15
                        ==============================

outcell: Unit cell vectors (Ang):
       10.000000    0.000000    0.000000
        0.000000   10.000000    0.000000
        0.000000    0.000000   10.000000

outcell: Cell vector modules (Ang)   :   10.000000   10.000000   10.000000
outcell: Cell angles (23,13,12) (deg):     90.0000     90.0000     90.0000
outcell: Cell volume (Ang**3)        :   1000.0000
New_DM. Step:    15
Re-using DM from previous geometry...
Extrapolating Density Matrix...

TDAP: Electric Field

TDAP: External EField    0.000000    0.000000    0.000000 Ry/Bohr/e

siesta: iscf   Eharris(eV)      E_KS(eV)   FreeEng(eV)   dDmax  Ef(eV)
siesta:    1     -468.2355     -468.2355     -468.2355  0.0000 -1.1082

siesta: E_KS(eV) =             -468.2355

siesta: Atomic forces (eV/Ang):
----------------------------------------
   Tot   -0.063434   -0.464292   -0.053272
----------------------------------------
   Max    0.460539
   Res    0.158147    sqrt( Sum f_i^2 / 3N )
----------------------------------------
   Max    0.460539    constrained

Stress-tensor-Voigt (kbar):        0.02        0.03        0.13        0.10        0.05       -0.00
(Free)E + p*V (eV/cell)     -468.2744
Target enthalpy (eV/cell)     -468.2355

siesta: Stress tensor (static) (eV/Ang**3):
         0.000049    0.000000    0.000014
         0.000000    0.000122   -0.000001
         0.000015   -0.000001    0.000099

siesta: Pressure (static):         -0.14447353  kBar

siesta: Stress tensor (total) (eV/Ang**3):
         0.000015    0.000060   -0.000003
         0.000060    0.000019    0.000031
        -0.000002    0.000031    0.000082

siesta: Pressure (total):         -0.06223429  kBar

TDAP : Electric dipole (a.u.)  =    0.315521    0.008660   -0.420339
TDAP : Electric dipole (Debye) =    0.801976    0.022011   -1.068397
TDAP : Energy  :  -24.22 -12.51  -8.10  -6.17   2.04   4.25  10.67  12.36
TDAP : Partition :    2.00   2.00   2.00   2.00   0.00   0.00   0.00   0.00

siesta: Temp_ion =     300.000 K

* Maximum dynamic memory allocated =     4 MB

siesta:                 ==============================
                            Begin MD step =     16
                        ==============================

outcell: Unit cell vectors (Ang):
       10.000000    0.000000    0.000000
        0.000000   10.000000    0.000000
        0.000000    0.000000   10.000000

outcell: Cell vector modules (Ang)   :   10.000000   10.000000   10.000000
outcell: Cell angles (23,13,12) (deg):     90.0000     90.0000     90.0000
outcell: Cell volume (Ang**3)        :   1000.0000
New_DM. Step:    16
Re-using DM from previous geometry...
Extrapolating Density Matrix...

TDAP: Electric Field

TDAP: External EField    0.000000    0.000000    0.000000 Ry/Bohr/e

siesta: iscf   Eharris(eV)      E_KS(eV)   FreeEng(eV)   dDmax  Ef(eV)
siesta:    1     -468.2355     -468.2355     -468.2355  0.0000 -1.1082

siesta: E_KS(eV) =             -468.2355

siesta: Atomic forces (eV/Ang):
----------------------------------------
   Tot   -0.063531   -0.464135   -0.053312
----------------------------------------
   Max    0.460455
   Res    0.158390    sqrt( Sum f_i^2 / 3N )
----------------------------------------
   Max    0.460455    constrained

Stress-tensor-Voigt (kbar):        0.02        0.03        0.13        0.10        0.05       -0.01
(Free)E + p*V (eV/cell)     -468.2743
Target enthalpy (eV/cell)     -468.2355

siesta: Stress tensor (static) (eV/Ang**3):
         0.000048    0.000000    0.000014
         0.000000    0.000122   -0.000001
         0.000010   -0.000001    0.000100

siesta: Pressure (static):         -0.14436355  kBar

siesta: Stress tensor (total) (eV/Ang**3):
         0.000014    0.000060   -0.000003
         0.000060    0.000019    0.000031
        -0.000007    0.000031    0.000083

siesta: Pressure (total):         -0.06212431  kBar

TDAP : Electric dipole (a.u.)  =    0.315946    0.008652   -0.419841
TDAP : Electric dipole (Debye) =    0.803055    0.021992   -1.067130
TDAP : Energy  :  -24.22 -12.52  -8.10  -6.17   2.04   4.25  10.67  12.36
TDAP : Partition :    2.00   2.00   2.00   2.00   0.00   0.00   0.00   0.00

siesta: Temp_ion =     300.000 K

* Maximum dynamic memory allocated =     4 MB

siesta:                 ==============================
                            Begin MD step =     17
                        ==============================

outcell: Unit cell vectors (Ang):
       10.000000    0.000000    0.000000
        0.000000   10.000000    0.000000
        0.000000    0.000000   10.000000

outcell: Cell vector modules (Ang)   :   10.000000   10.000000   10.000000
outcell: Cell angles (23,13,12) (deg):     90.0000     90.0000     90.0000
outcell: Cell volume (Ang**3)        :   1000.0000
New_DM. Step:    17
Re-using DM from previous geometry...
Extrapolating Density Matrix...

TDAP: Electric Field

TDAP: External EField    0.000000    0.000000    0.000000 Ry/Bohr/e

siesta: iscf   Eharris(eV)      E_KS(eV)   FreeEng(eV)   dDmax  Ef(eV)
siesta:    1     -468.2355     -468.2355     -468.2355  0.0000 -1.1082

siesta: E_KS(eV) =             -468.2355

siesta: Atomic forces (eV/Ang):
----------------------------------------
   Tot   -0.063665   -0.464023   -0.053359
----------------------------------------
   Max    0.460404
   Res    0.158662    sqrt( Sum f_i^2 / 3N )
----------------------------------------
   Max    0.460404    constrained

Stress-tensor-Voigt (kbar):        0.02        0.03        0.13        0.10        0.05       -0.02
(Free)E + p*V (eV/cell)     -468.2742
Target enthalpy (eV/cell)     -468.2355

siesta: Stress tensor (static) (eV/Ang**3):
         0.000048    0.000000    0.000014
         0.000000    0.000122   -0.000001
         0.000007   -0.000001    0.000100

siesta: Pressure (static):         -0.14418131  kBar

siesta: Stress tensor (total) (eV/Ang**3):
         0.000013    0.000060   -0.000002
         0.000060    0.000019    0.000031
        -0.000010    0.000031    0.000083

siesta: Pressure (total):         -0.06194206  kBar

TDAP : Electric dipole (a.u.)  =    0.316401    0.008645   -0.419475
TDAP : Electric dipole (Debye) =    0.804211    0.021975   -1.066200
TDAP : Energy  :  -24.22 -12.52  -8.10  -6.17   2.04   4.25  10.67  12.36
TDAP : Partition :    2.00   2.00   2.00   2.00   0.00   0.00   0.00   0.00

siesta: Temp_ion =     300.000 K

* Maximum dynamic memory allocated =     4 MB

siesta:                 ==============================
                            Begin MD step =     18
                        ==============================

outcell: Unit cell vectors (Ang):
       10.000000    0.000000    0.000000
        0.000000   10.000000    0.000000
        0.000000    0.000000   10.000000

outcell: Cell vector modules (Ang)   :   10.000000   10.000000   10.000000
outcell: Cell angles (23,13,12) (deg):     90.0000     90.0000     90.0000
outcell: Cell volume (Ang**3)        :   1000.0000
New_DM. Step:    18
Re-using DM from previous geometry...
Extrapolating Density Matrix...

TDAP: Electric Field

TDAP: External EField    0.000000    0.000000    0.000000 Ry/Bohr/e

siesta: iscf   Eharris(eV)      E_KS(eV)   FreeEng(eV)   dDmax  Ef(eV)
siesta:    1     -468.2355     -468.2355     -468.2355  0.0000 -1.1082

siesta: E_KS(eV) =             -468.2355

siesta: Atomic forces (eV/Ang):
----------------------------------------
   Tot   -0.063746   -0.463987   -0.053294
----------------------------------------
   Max    0.460415
   Res    0.158827    sqrt( Sum f_i^2 / 3N )
----------------------------------------
   Max    0.460415    constrained

Stress-tensor-Voigt (kbar):        0.02        0.03        0.13        0.10        0.05       -0.02
(Free)E + p*V (eV/cell)     -468.2744
Target enthalpy (eV/cell)     -468.2355

siesta: Stress tensor (static) (eV/Ang**3):
         0.000048    0.000000    0.000015
         0.000000    0.000122   -0.000001
         0.000006   -0.000001    0.000101

siesta: Pressure (static):         -0.14458637  kBar

siesta: Stress tensor (total) (eV/Ang**3):
         0.000013    0.000059   -0.000002
         0.000060    0.000019    0.000031
        -0.000011    0.000031    0.000084

siesta: Pressure (total):         -0.06234712  kBar

TDAP : Electric dipole (a.u.)  =    0.316810    0.008637   -0.419076
TDAP : Electric dipole (Debye) =    0.805252    0.021953   -1.065186
TDAP : Energy  :  -24.22 -12.52  -8.10  -6.17   2.04   4.25  10.67  12.36
TDAP : Partition :    2.00   2.00   2.00   2.00   0.00   0.00   0.00   0.00

siesta: Temp_ion =     300.000 K

* Maximum dynamic memory allocated =     4 MB

siesta:                 ==============================
                            Begin MD step =     19
                        ==============================

outcell: Unit cell vectors (Ang):
       10.000000    0.000000    0.000000
        0.000000   10.000000    0.000000
        0.000000    0.000000   10.000000

outcell: Cell vector modules (Ang)   :   10.000000   10.000000   10.000000
outcell: Cell angles (23,13,12) (deg):     90.0000     90.0000     90.0000
outcell: Cell volume (Ang**3)        :   1000.0000
New_DM. Step:    19
Re-using DM from previous geometry...
Extrapolating Density Matrix...

TDAP: Electric Field

TDAP: External EField    0.000000    0.000000    0.000000 Ry/Bohr/e

siesta: iscf   Eharris(eV)      E_KS(eV)   FreeEng(eV)   dDmax  Ef(eV)
siesta:    1     -468.2355     -468.2355     -468.2355  0.0000 -1.1082

siesta: E_KS(eV) =             -468.2355

siesta: Atomic forces (eV/Ang):
----------------------------------------
   Tot   -0.063684   -0.463988   -0.053185
----------------------------------------
   Max    0.460450
   Res    0.158763    sqrt( Sum f_i^2 / 3N )
----------------------------------------
   Max    0.460450    constrained

Stress-tensor-Voigt (kbar):        0.02        0.03        0.14        0.10        0.05       -0.02
(Free)E + p*V (eV/cell)     -468.2753
Target enthalpy (eV/cell)     -468.2355

siesta: Stress tensor (static) (eV/Ang**3):
         0.000049    0.000000    0.000015
         0.000000    0.000122   -0.000001
         0.000006   -0.000001    0.000102

siesta: Pressure (static):         -0.14590766  kBar

siesta: Stress tensor (total) (eV/Ang**3):
         0.000015    0.000059   -0.000001
         0.000060    0.000019    0.000031
        -0.000010    0.000031    0.000085

siesta: Pressure (total):         -0.06366841  kBar

TDAP : Electric dipole (a.u.)  =    0.317146    0.008627   -0.418701
TDAP : Electric dipole (Debye) =    0.806104    0.021927   -1.064233
TDAP : Energy  :  -24.22 -12.52  -8.10  -6.17   2.04   4.25  10.67  12.36
TDAP : Partition :    2.00   2.00   2.00   2.00   0.00   0.00   0.00   0.00

siesta: Temp_ion =     300.000 K

* Maximum dynamic memory allocated =     4 MB

siesta:                 ==============================
                            Begin MD step =     20
                        ==============================

outcell: Unit cell vectors (Ang):
       10.000000    0.000000    0.000000
        0.000000   10.000000    0.000000
        0.000000    0.000000   10.000000

outcell: Cell vector modules (Ang)   :   10.000000   10.000000   10.000000
outcell: Cell angles (23,13,12) (deg):     90.0000     90.0000     90.0000
outcell: Cell volume (Ang**3)        :   1000.0000
New_DM. Step:    20
Re-using DM from previous geometry...
Extrapolating Density Matrix...

TDAP: Electric Field

TDAP: External EField    0.000000    0.000000    0.000000 Ry/Bohr/e

siesta: iscf   Eharris(eV)      E_KS(eV)   FreeEng(eV)   dDmax  Ef(eV)
siesta:    1     -468.2355     -468.2355     -468.2355  0.0000 -1.1082

siesta: E_KS(eV) =             -468.2355

siesta: Atomic forces (eV/Ang):
----------------------------------------
   Tot   -0.063544   -0.464054   -0.053231
----------------------------------------
   Max    0.460548
   Res    0.158476    sqrt( Sum f_i^2 / 3N )
----------------------------------------
   Max    0.460548    constrained

Stress-tensor-Voigt (kbar):        0.03        0.03        0.14        0.10        0.05       -0.01
(Free)E + p*V (eV/cell)     -468.2761
Target enthalpy (eV/cell)     -468.2355

siesta: Stress tensor (static) (eV/Ang**3):
         0.000052    0.000000    0.000015
         0.000000    0.000122   -0.000001
         0.000008   -0.000001    0.000102

siesta: Pressure (static):         -0.14728291  kBar

siesta: Stress tensor (total) (eV/Ang**3):
         0.000017    0.000059   -0.000002
         0.000060    0.000019    0.000031
        -0.000009    0.000031    0.000085

siesta: Pressure (total):         -0.06504366  kBar

TDAP : Electric dipole (a.u.)  =    0.317398    0.008618   -0.418573
TDAP : Electric dipole (Debye) =    0.806746    0.021905   -1.063906
TDAP : Energy  :  -24.22 -12.52  -8.10  -6.17   2.04   4.25  10.67  12.36
TDAP : Partition :    2.00   2.00   2.00   2.00   0.00   0.00   0.00   0.00

siesta: Temp_ion =     300.000 K

* Maximum dynamic memory allocated =     4 MB

siesta:                 ==============================
                            Begin MD step =     21
                        ==============================

outcell: Unit cell vectors (Ang):
       10.000000    0.000000    0.000000
        0.000000   10.000000    0.000000
        0.000000    0.000000   10.000000

outcell: Cell vector modules (Ang)   :   10.000000   10.000000   10.000000
outcell: Cell angles (23,13,12) (deg):     90.0000     90.0000     90.0000
outcell: Cell volume (Ang**3)        :   1000.0000
New_DM. Step:    21
Re-using DM from previous geometry...
Extrapolating Density Matrix...

TDAP: Electric Field

TDAP: External EField    0.000000    0.000000    0.000000 Ry/Bohr/e

siesta: iscf   Eharris(eV)      E_KS(eV)   FreeEng(eV)   dDmax  Ef(eV)
siesta:    1     -468.2355     -468.2355     -468.2355  0.0000 -1.1082

siesta: E_KS(eV) =             -468.2355

siesta: Atomic forces (eV/Ang):
----------------------------------------
   Tot   -0.063471   -0.464175   -0.053369
----------------------------------------
   Max    0.460732
   Res    0.157993    sqrt( Sum f_i^2 / 3N )
----------------------------------------
   Max    0.460732    constrained

Stress-tensor-Voigt (kbar):        0.03        0.03        0.13        0.10        0.05       -0.01
(Free)E + p*V (eV/cell)     -468.2761
Target enthalpy (eV/cell)     -468.2355

siesta: Stress tensor (static) (eV/Ang**3):
         0.000054    0.000000    0.000014
         0.000000    0.000122   -0.000001
         0.000009   -0.000001    0.000100

siesta: Pressure (static):         -0.14732801  kBar

siesta: Stress tensor (total) (eV/Ang**3):
         0.000020    0.000060   -0.000003
         0.000059    0.000019    0.000031
        -0.000008    0.000031    0.000083

siesta: Pressure (total):         -0.06508876  kBar

TDAP : Electric dipole (a.u.)  =    0.317579    0.008615   -0.418824
TDAP : Electric dipole (Debye) =    0.807207    0.021898   -1.064545
TDAP : Energy  :  -24.21 -12.51  -8.10  -6.17   2.04   4.25  10.67  12.36
TDAP : Partition :    2.00   2.00   2.00   2.00   0.00   0.00   0.00   0.00

siesta: Temp_ion =     300.000 K

* Maximum dynamic memory allocated =     4 MB

siesta:                 ==============================
                            Begin MD step =     22
                        ==============================

outcell: Unit cell vectors (Ang):
       10.000000    0.000000    0.000000
        0.000000   10.000000    0.000000
        0.000000    0.000000   10.000000

outcell: Cell vector modules (Ang)   :   10.000000   10.000000   10.000000
outcell: Cell angles (23,13,12) (deg):     90.0000     90.0000     90.0000
outcell: Cell volume (Ang**3)        :   1000.0000
New_DM. Step:    22
Re-using DM from previous geometry...
Extrapolating Density Matrix...

TDAP: Electric Field

TDAP: External EField    0.000000    0.000000    0.000000 Ry/Bohr/e

siesta: iscf   Eharris(eV)      E_KS(eV)   FreeEng(eV)   dDmax  Ef(eV)
siesta:    1     -468.2355     -468.2355     -468.2355  0.0000 -1.1082

siesta: E_KS(eV) =             -468.2355

siesta: Atomic forces (eV/Ang):
----------------------------------------
   Tot   -0.063539   -0.464288   -0.053332
----------------------------------------
   Max    0.460947
   Res    0.157402    sqrt( Sum f_i^2 / 3N )
----------------------------------------
   Max    0.460947    constrained

Stress-tensor-Voigt (kbar):        0.03        0.03        0.13        0.10        0.05       -0.01
(Free)E + p*V (eV/cell)     -468.2752
Target enthalpy (eV/cell)     -468.2355

siesta: Stress tensor (static) (eV/Ang**3):
         0.000056    0.000000    0.000012
         0.000000    0.000122   -0.000000
         0.000011   -0.000001    0.000095

siesta: Pressure (static):         -0.14580275  kBar

siesta: Stress tensor (total) (eV/Ang**3):
         0.000021    0.000060   -0.000005
         0.000059    0.000019    0.000031
        -0.000006    0.000031    0.000078

siesta: Pressure (total):         -0.06356350  kBar

TDAP : Electric dipole (a.u.)  =    0.317713    0.008620   -0.419368
TDAP : Electric dipole (Debye) =    0.807548    0.021909   -1.065928
TDAP : Energy  :  -24.21 -12.51  -8.10  -6.17   2.04   4.25  10.67  12.36
TDAP : Partition :    2.00   2.00   2.00   2.00   0.00   0.00   0.00   0.00

siesta: Temp_ion =     300.000 K

* Maximum dynamic memory allocated =     4 MB

siesta:                 ==============================
                            Begin MD step =     23
                        ==============================

outcell: Unit cell vectors (Ang):
       10.000000    0.000000    0.000000
        0.000000   10.000000    0.000000
        0.000000    0.000000   10.000000

outcell: Cell vector modules (Ang)   :   10.000000   10.000000   10.000000
outcell: Cell angles (23,13,12) (deg):     90.0000     90.0000     90.0000
outcell: Cell volume (Ang**3)        :   1000.0000
New_DM. Step:    23
Re-using DM from previous geometry...
Extrapolating Density Matrix...

TDAP: Electric Field

TDAP: External EField    0.000000    0.000000    0.000000 Ry/Bohr/e

siesta: iscf   Eharris(eV)      E_KS(eV)   FreeEng(eV)   dDmax  Ef(eV)
siesta:    1     -468.2355     -468.2355     -468.2355  0.0000 -1.1082

siesta: E_KS(eV) =             -468.2355

siesta: Atomic forces (eV/Ang):
----------------------------------------
   Tot   -0.063568   -0.464447   -0.053309
----------------------------------------
   Max    0.461219
   Res    0.156922    sqrt( Sum f_i^2 / 3N )
----------------------------------------
   Max    0.461219    constrained

Stress-tensor-Voigt (kbar):        0.04        0.03        0.12        0.10        0.05       -0.01
(Free)E + p*V (eV/cell)     -468.2738
Target enthalpy (eV/cell)     -468.2355

siesta: Stress tensor (static) (eV/Ang**3):
         0.000056    0.000000    0.000010
         0.000000    0.000122   -0.000000
         0.000014   -0.000000    0.000090

siesta: Pressure (static):         -0.14356856  kBar

siesta: Stress tensor (total) (eV/Ang**3):
         0.000022    0.000060   -0.000007
         0.000059    0.000019    0.000031
        -0.000003    0.000031    0.000073

siesta: Pressure (total):         -0.06132931  kBar

TDAP : Electric dipole (a.u.)  =    0.317793    0.008627   -0.419979
TDAP : Electric dipole (Debye) =    0.807750    0.021929   -1.067481
TDAP : Energy  :  -24.21 -12.51  -8.09  -6.16   2.04   4.25  10.67  12.36
TDAP : Partition :    2.00   2.00   2.00   2.00   0.00   0.00   0.00   0.00

siesta: Temp_ion =     300.000 K

* Maximum dynamic memory allocated =     4 MB

siesta:                 ==============================
                            Begin MD step =     24
                        ==============================

outcell: Unit cell vectors (Ang):
       10.000000    0.000000    0.000000
        0.000000   10.000000    0.000000
        0.000000    0.000000   10.000000

outcell: Cell vector modules (Ang)   :   10.000000   10.000000   10.000000
outcell: Cell angles (23,13,12) (deg):     90.0000     90.0000     90.0000
outcell: Cell volume (Ang**3)        :   1000.0000
New_DM. Step:    24
Re-using DM from previous geometry...
Extrapolating Density Matrix...

TDAP: Electric Field

TDAP: External EField    0.000000    0.000000    0.000000 Ry/Bohr/e

siesta: iscf   Eharris(eV)      E_KS(eV)   FreeEng(eV)   dDmax  Ef(eV)
siesta:    1     -468.2355     -468.2355     -468.2355  0.0000 -1.1082

siesta: E_KS(eV) =             -468.2355

siesta: Atomic forces (eV/Ang):
----------------------------------------
   Tot   -0.063555   -0.464440   -0.053417
----------------------------------------
   Max    0.461303
   Res    0.156613    sqrt( Sum f_i^2 / 3N )
----------------------------------------
   Max    0.461303    constrained

Stress-tensor-Voigt (kbar):        0.03        0.03        0.11        0.10        0.05       -0.00
(Free)E + p*V (eV/cell)     -468.2723
Target enthalpy (eV/cell)     -468.2355

siesta: Stress tensor (static) (eV/Ang**3):
         0.000056    0.000000    0.000007
         0.000000    0.000122   -0.000000
         0.000015   -0.000000    0.000086

siesta: Pressure (static):         -0.14109503  kBar

siesta: Stress tensor (total) (eV/Ang**3):
         0.000022    0.000060   -0.000009
         0.000059    0.000019    0.000031
        -0.000002    0.000031    0.000069

siesta: Pressure (total):         -0.05885578  kBar

TDAP : Electric dipole (a.u.)  =    0.317775    0.008633   -0.420433
TDAP : Electric dipole (Debye) =    0.807703    0.021944   -1.068636
TDAP : Energy  :  -24.21 -12.51  -8.09  -6.16   2.04   4.25  10.67  12.36
TDAP : Partition :    2.00   2.00   2.00   2.00   0.00   0.00   0.00   0.00

siesta: Temp_ion =     300.000 K

* Maximum dynamic memory allocated =     4 MB

siesta:                 ==============================
                            Begin MD step =     25
                        ==============================

outcell: Unit cell vectors (Ang):
       10.000000    0.000000    0.000000
        0.000000   10.000000    0.000000
        0.000000    0.000000   10.000000

outcell: Cell vector modules (Ang)   :   10.000000   10.000000   10.000000
outcell: Cell angles (23,13,12) (deg):     90.0000     90.0000     90.0000
outcell: Cell volume (Ang**3)        :   1000.0000
New_DM. Step:    25
Re-using DM from previous geometry...
Extrapolating Density Matrix...

TDAP: Electric Field

TDAP: External EField    0.000000    0.000000    0.000000 Ry/Bohr/e

siesta: iscf   Eharris(eV)      E_KS(eV)   FreeEng(eV)   dDmax  Ef(eV)
siesta:    1     -468.2355     -468.2355     -468.2355  0.0000 -1.1082

siesta: E_KS(eV) =             -468.2355

siesta: Atomic forces (eV/Ang):
----------------------------------------
   Tot   -0.063653   -0.464438   -0.053691
----------------------------------------
   Max    0.461358
   Res    0.156500    sqrt( Sum f_i^2 / 3N )
----------------------------------------
   Max    0.461358    constrained

Stress-tensor-Voigt (kbar):        0.03        0.03        0.11        0.10        0.05       -0.00
(Free)E + p*V (eV/cell)     -468.2706
Target enthalpy (eV/cell)     -468.2355

siesta: Stress tensor (static) (eV/Ang**3):
         0.000054    0.000000    0.000006
         0.000000    0.000122   -0.000000
         0.000015   -0.000000    0.000083

siesta: Pressure (static):         -0.13846156  kBar

siesta: Stress tensor (total) (eV/Ang**3):
         0.000020    0.000060   -0.000011
         0.000059    0.000019    0.000031
        -0.000002    0.000031    0.000066

siesta: Pressure (total):         -0.05622231  kBar

TDAP : Electric dipole (a.u.)  =    0.317651    0.008632   -0.420601
TDAP : Electric dipole (Debye) =    0.807388    0.021940   -1.069061
TDAP : Energy  :  -24.21 -12.51  -8.09  -6.16   2.04   4.25  10.67  12.36
TDAP : Partition :    2.00   2.00   2.00   2.00   0.00   0.00   0.00   0.00

siesta: Temp_ion =     300.000 K

* Maximum dynamic memory allocated =     4 MB

siesta:                 ==============================
                            Begin MD step =     26
                        ==============================

outcell: Unit cell vectors (Ang):
       10.000000    0.000000    0.000000
        0.000000   10.000000    0.000000
        0.000000    0.000000   10.000000

outcell: Cell vector modules (Ang)   :   10.000000   10.000000   10.000000
outcell: Cell angles (23,13,12) (deg):     90.0000     90.0000     90.0000
outcell: Cell volume (Ang**3)        :   1000.0000
New_DM. Step:    26
Re-using DM from previous geometry...
Extrapolating Density Matrix...

TDAP: Electric Field

TDAP: External EField    0.000000    0.000000    0.000000 Ry/Bohr/e

siesta: iscf   Eharris(eV)      E_KS(eV)   FreeEng(eV)   dDmax  Ef(eV)
siesta:    1     -468.2355     -468.2355     -468.2355  0.0000 -1.1082

siesta: E_KS(eV) =             -468.2355

siesta: Atomic forces (eV/Ang):
----------------------------------------
   Tot   -0.063823   -0.464413   -0.053797
----------------------------------------
   Max    0.461349
   Res    0.156421    sqrt( Sum f_i^2 / 3N )
----------------------------------------
   Max    0.461349    constrained

Stress-tensor-Voigt (kbar):        0.03        0.03        0.10        0.10        0.05       -0.00
(Free)E + p*V (eV/cell)     -468.2693
Target enthalpy (eV/cell)     -468.2355

siesta: Stress tensor (static) (eV/Ang**3):
         0.000053    0.000000    0.000004
         0.000000    0.000122   -0.000000
         0.000015   -0.000000    0.000080

siesta: Pressure (static):         -0.13642647  kBar

siesta: Stress tensor (total) (eV/Ang**3):
         0.000019    0.000060   -0.000013
         0.000059    0.000019    0.000031
        -0.000002    0.000031    0.000063

siesta: Pressure (total):         -0.05418722  kBar

TDAP : Electric dipole (a.u.)  =    0.317511    0.008622   -0.420504
TDAP : Electric dipole (Debye) =    0.807032    0.021916   -1.068815
TDAP : Energy  :  -24.22 -12.51  -8.09  -6.16   2.04   4.25  10.67  12.36
TDAP : Partition :    2.00   2.00   2.00   2.00   0.00   0.00   0.00   0.00

siesta: Temp_ion =     300.000 K

* Maximum dynamic memory allocated =     4 MB

[...]

Stress-tensor-Voigt (kbar):        0.03        0.03        0.12        0.10        0.05       -0.00
(Free)E + p*V (eV/cell)     -468.2728
Target enthalpy (eV/cell)     -468.2356

siesta: Stress tensor (static) (eV/Ang**3):
         0.000053    0.000000    0.000010
         0.000000    0.000122   -0.000000
         0.000014   -0.000000    0.000091

siesta: Pressure (static):         -0.14183989  kBar

siesta: Stress tensor (total) (eV/Ang**3):
         0.000018    0.000060   -0.000007
         0.000059    0.000019    0.000031
        -0.000003    0.000031    0.000074

siesta: Pressure (total):         -0.05960064  kBar

TDAP : Electric dipole (a.u.)  =    0.317622    0.008638   -0.419595
TDAP : Electric dipole (Debye) =    0.807315    0.021955   -1.066506
TDAP : Energy  :  -24.22 -12.51  -8.10  -6.17   2.04   4.25  10.67  12.36
TDAP : Partition :    2.00   2.00   2.00   2.00   0.00   0.00   0.00   0.00

siesta: Temp_ion =     300.000 K

* Maximum dynamic memory allocated =     4 MB

siesta:                 ==============================
                            Begin MD step =   1496
                        ==============================

outcell: Unit cell vectors (Ang):
       10.000000    0.000000    0.000000
        0.000000   10.000000    0.000000
        0.000000    0.000000   10.000000

outcell: Cell vector modules (Ang)   :   10.000000   10.000000   10.000000
outcell: Cell angles (23,13,12) (deg):     90.0000     90.0000     90.0000
outcell: Cell volume (Ang**3)        :   1000.0000
New_DM. Step:  1496
Re-using DM from previous geometry...
Extrapolating Density Matrix...

TDAP: Electric Field

TDAP: External EField    0.000000    0.000000    0.000000 Ry/Bohr/e

siesta: iscf   Eharris(eV)      E_KS(eV)   FreeEng(eV)   dDmax  Ef(eV)
siesta:    1     -468.2356     -468.2356     -468.2356  0.0000 -1.1082

siesta: E_KS(eV) =             -468.2356

siesta: Atomic forces (eV/Ang):
----------------------------------------
   Tot   -0.063436   -0.464231   -0.053464
----------------------------------------
   Max    0.460793
   Res    0.156850    sqrt( Sum f_i^2 / 3N )
----------------------------------------
   Max    0.460793    constrained

Stress-tensor-Voigt (kbar):        0.03        0.03        0.12        0.10        0.05       -0.01
(Free)E + p*V (eV/cell)     -468.2738
Target enthalpy (eV/cell)     -468.2356

siesta: Stress tensor (static) (eV/Ang**3):
         0.000056    0.000000    0.000009
         0.000000    0.000122   -0.000001
         0.000013   -0.000000    0.000091

siesta: Pressure (static):         -0.14346018  kBar

siesta: Stress tensor (total) (eV/Ang**3):
         0.000021    0.000060   -0.000008
         0.000060    0.000019    0.000031
        -0.000003    0.000031    0.000074

siesta: Pressure (total):         -0.06122093  kBar

TDAP : Electric dipole (a.u.)  =    0.317699    0.008640   -0.419666
TDAP : Electric dipole (Debye) =    0.807511    0.021960   -1.066685
TDAP : Energy  :  -24.22 -12.51  -8.09  -6.17   2.04   4.25  10.67  12.36
TDAP : Partition :    2.00   2.00   2.00   2.00   0.00   0.00   0.00   0.00

siesta: Temp_ion =     300.000 K

* Maximum dynamic memory allocated =     4 MB

siesta:                 ==============================
                            Begin MD step =   1497
                        ==============================

outcell: Unit cell vectors (Ang):
       10.000000    0.000000    0.000000
        0.000000   10.000000    0.000000
        0.000000    0.000000   10.000000

outcell: Cell vector modules (Ang)   :   10.000000   10.000000   10.000000
outcell: Cell angles (23,13,12) (deg):     90.0000     90.0000     90.0000
outcell: Cell volume (Ang**3)        :   1000.0000
New_DM. Step:  1497
Re-using DM from previous geometry...
Extrapolating Density Matrix...

TDAP: Electric Field

TDAP: External EField    0.000000    0.000000    0.000000 Ry/Bohr/e

siesta: iscf   Eharris(eV)      E_KS(eV)   FreeEng(eV)   dDmax  Ef(eV)
siesta:    1     -468.2356     -468.2356     -468.2356  0.0001 -1.1082

siesta: E_KS(eV) =             -468.2356

siesta: Atomic forces (eV/Ang):
----------------------------------------
   Tot   -0.063676   -0.464249   -0.053301
----------------------------------------
   Max    0.460829
   Res    0.156944    sqrt( Sum f_i^2 / 3N )
----------------------------------------
   Max    0.460829    constrained

Stress-tensor-Voigt (kbar):        0.03        0.03        0.12        0.10        0.05       -0.00
(Free)E + p*V (eV/cell)     -468.2735
Target enthalpy (eV/cell)     -468.2356

siesta: Stress tensor (static) (eV/Ang**3):
         0.000055    0.000000    0.000010
         0.000000    0.000122   -0.000000
         0.000015   -0.000000    0.000090

siesta: Pressure (static):         -0.14294289  kBar

siesta: Stress tensor (total) (eV/Ang**3):
         0.000021    0.000060   -0.000006
         0.000060    0.000019    0.000031
        -0.000002    0.000031    0.000073

siesta: Pressure (total):         -0.06070364  kBar

TDAP : Electric dipole (a.u.)  =    0.317634    0.008641   -0.419717
TDAP : Electric dipole (Debye) =    0.807346    0.021964   -1.066815
TDAP : Energy  :  -24.22 -12.51  -8.09  -6.17   2.04   4.25  10.67  12.36
TDAP : Partition :    2.00   2.00   2.00   2.00   0.00   0.00   0.00   0.00

siesta: Temp_ion =     300.000 K

* Maximum dynamic memory allocated =     4 MB

siesta:                 ==============================
                            Begin MD step =   1498
                        ==============================

outcell: Unit cell vectors (Ang):
       10.000000    0.000000    0.000000
        0.000000   10.000000    0.000000
        0.000000    0.000000   10.000000

outcell: Cell vector modules (Ang)   :   10.000000   10.000000   10.000000
outcell: Cell angles (23,13,12) (deg):     90.0000     90.0000     90.0000
outcell: Cell volume (Ang**3)        :   1000.0000
New_DM. Step:  1498
Re-using DM from previous geometry...
Extrapolating Density Matrix...

TDAP: Electric Field

TDAP: External EField    0.000000    0.000000    0.000000 Ry/Bohr/e

siesta: iscf   Eharris(eV)      E_KS(eV)   FreeEng(eV)   dDmax  Ef(eV)
siesta:    1     -468.2356     -468.2356     -468.2356  0.0000 -1.1082

siesta: E_KS(eV) =             -468.2356

siesta: Atomic forces (eV/Ang):
----------------------------------------
   Tot   -0.064051   -0.464269   -0.053354
----------------------------------------
   Max    0.460824
   Res    0.157213    sqrt( Sum f_i^2 / 3N )
----------------------------------------
   Max    0.460824    constrained

Stress-tensor-Voigt (kbar):        0.03        0.03        0.12        0.10        0.05       -0.00
(Free)E + p*V (eV/cell)     -468.2736
Target enthalpy (eV/cell)     -468.2356

siesta: Stress tensor (static) (eV/Ang**3):
         0.000054    0.000000    0.000012
         0.000000    0.000122   -0.000001
         0.000016   -0.000001    0.000091

siesta: Pressure (static):         -0.14307112  kBar

siesta: Stress tensor (total) (eV/Ang**3):
         0.000020    0.000060   -0.000005
         0.000059    0.000019    0.000031
        -0.000001    0.000031    0.000075

siesta: Pressure (total):         -0.06083187  kBar

TDAP : Electric dipole (a.u.)  =    0.317505    0.008644   -0.419788
TDAP : Electric dipole (Debye) =    0.807018    0.021972   -1.066995
TDAP : Energy  :  -24.21 -12.51  -8.09  -6.16   2.04   4.25  10.67  12.36
TDAP : Partition :    2.00   2.00   2.00   2.00   0.00   0.00   0.00   0.00

siesta: Temp_ion =     300.000 K

* Maximum dynamic memory allocated =     4 MB

siesta:                 ==============================
                            Begin MD step =   1499
                        ==============================

outcell: Unit cell vectors (Ang):
       10.000000    0.000000    0.000000
        0.000000   10.000000    0.000000
        0.000000    0.000000   10.000000

outcell: Cell vector modules (Ang)   :   10.000000   10.000000   10.000000
outcell: Cell angles (23,13,12) (deg):     90.0000     90.0000     90.0000
outcell: Cell volume (Ang**3)        :   1000.0000
New_DM. Step:  1499
Re-using DM from previous geometry...
Extrapolating Density Matrix...

TDAP: Electric Field

TDAP: External EField    0.000000    0.000000    0.000000 Ry/Bohr/e

siesta: iscf   Eharris(eV)      E_KS(eV)   FreeEng(eV)   dDmax  Ef(eV)
siesta:    1     -468.2356     -468.2356     -468.2356  0.0001 -1.1082

siesta: E_KS(eV) =             -468.2356

siesta: Atomic forces (eV/Ang):
----------------------------------------
   Tot   -0.063999   -0.464293   -0.053511
----------------------------------------
   Max    0.460788
   Res    0.157056    sqrt( Sum f_i^2 / 3N )
----------------------------------------
   Max    0.460788    constrained

Stress-tensor-Voigt (kbar):        0.04        0.03        0.12        0.10        0.05       -0.00
(Free)E + p*V (eV/cell)     -468.2748
Target enthalpy (eV/cell)     -468.2356

siesta: Stress tensor (static) (eV/Ang**3):
         0.000057    0.000000    0.000012
         0.000000    0.000122   -0.000001
         0.000016   -0.000001    0.000092

siesta: Pressure (static):         -0.14498524  kBar

siesta: Stress tensor (total) (eV/Ang**3):
         0.000022    0.000060   -0.000005
         0.000059    0.000019    0.000031
        -0.000001    0.000031    0.000076

siesta: Pressure (total):         -0.06274599  kBar

TDAP : Electric dipole (a.u.)  =    0.317470    0.008649   -0.419886
TDAP : Electric dipole (Debye) =    0.806929    0.021983   -1.067244
TDAP : Energy  :  -24.21 -12.51  -8.09  -6.16   2.04   4.25  10.67  12.36
TDAP : Partition :    2.00   2.00   2.00   2.00   0.00   0.00   0.00   0.00

siesta: Temp_ion =     300.000 K

* Maximum dynamic memory allocated =     4 MB

siesta:                 ==============================
                            Begin MD step =   1500
                        ==============================

outcell: Unit cell vectors (Ang):
       10.000000    0.000000    0.000000
        0.000000   10.000000    0.000000
        0.000000    0.000000   10.000000

outcell: Cell vector modules (Ang)   :   10.000000   10.000000   10.000000
outcell: Cell angles (23,13,12) (deg):     90.0000     90.0000     90.0000
outcell: Cell volume (Ang**3)        :   1000.0000
New_DM. Step:  1500
Re-using DM from previous geometry...
Extrapolating Density Matrix...

TDAP: Electric Field

TDAP: External EField    0.000000    0.000000    0.000000 Ry/Bohr/e

siesta: iscf   Eharris(eV)      E_KS(eV)   FreeEng(eV)   dDmax  Ef(eV)
siesta:    1     -468.2356     -468.2356     -468.2356  0.0001 -1.1082

siesta: E_KS(eV) =             -468.2356

siesta: Atomic forces (eV/Ang):
----------------------------------------
   Tot   -0.063645   -0.464343   -0.053614
----------------------------------------
   Max    0.460834
   Res    0.156734    sqrt( Sum f_i^2 / 3N )
----------------------------------------
   Max    0.460834    constrained

Stress-tensor-Voigt (kbar):        0.04        0.03        0.12        0.10        0.05       -0.00
(Free)E + p*V (eV/cell)     -468.2749
Target enthalpy (eV/cell)     -468.2356

siesta: Stress tensor (static) (eV/Ang**3):
         0.000059    0.000000    0.000011
         0.000000    0.000122   -0.000001
         0.000015   -0.000000    0.000091

siesta: Pressure (static):         -0.14527823  kBar

siesta: Stress tensor (total) (eV/Ang**3):
         0.000025    0.000060   -0.000006
         0.000060    0.000019    0.000031
        -0.000002    0.000031    0.000074

siesta: Pressure (total):         -0.06303898  kBar
Writing WFSX for COOP/COHP in siesta.TDWFSX

TDAP : Electric dipole (a.u.)  =    0.317489    0.008651   -0.419895
TDAP : Electric dipole (Debye) =    0.806978    0.021989   -1.067268
TDAP : Energy  :  -24.22 -12.51  -8.09  -6.17   2.04   4.25  10.67  12.36
TDAP : Partition :    2.00   2.00   2.00   2.00   0.00   0.00   0.00   0.00

siesta: Temp_ion =     300.000 K

* Maximum dynamic memory allocated =     4 MB

siesta: Program's energy decomposition (eV):
siesta: Ebs     =      -101.979655
siesta: Eions   =       815.854478
siesta: Ena     =       170.060777
siesta: Ekin    =       357.169563
siesta: Enl     =       -63.837623
siesta: DEna    =        -0.146300
siesta: DUscf   =         0.703969
siesta: DUext   =        -0.000000
siesta: Exc     =      -116.331487
siesta: eta*DQ  =         0.000000
siesta: Emadel  =         0.000000
siesta: Emeta   =         0.000000
siesta: Emolmec =         0.000000
siesta: Ekinion =         0.077553
siesta: Eharris =      -468.158031
siesta: Etot    =      -468.158026
siesta: FreeEng =      -468.158026

siesta: Final energy (eV):
siesta:  Band Struct. =    -101.979655
siesta:       Kinetic =     357.169563
siesta:       Hartree =     460.299087
siesta:    Ext. field =      -0.000000
siesta:   Exch.-corr. =    -116.331487
siesta:  Ion-electron =   -1228.808033
siesta:       Ion-ion =      59.435292
siesta:       Ekinion =       0.077553
siesta:         Total =    -468.158026

siesta: Atomic forces (eV/Ang):
siesta:      1    0.008830   -0.001920    0.002242
siesta:      2    0.007821   -0.001590   -0.011131
siesta:      3   -0.080296   -0.460834   -0.044725
siesta: ----------------------------------------
siesta:    Tot   -0.063645   -0.464343   -0.053614

siesta: Stress tensor (static) (eV/Ang**3):
siesta:     0.000059    0.000000    0.000011
siesta:     0.000000    0.000122   -0.000001
siesta:     0.000015   -0.000000    0.000091

siesta: Cell volume =       1000.000000 Ang**3

siesta: Pressure (static):
siesta:                Solid            Molecule  Units
siesta:          -0.00000099         -0.00000100  Ry/Bohr**3
siesta:          -0.00009067         -0.00009209  eV/Ang**3
siesta:          -0.14527823         -0.14754888  kBar
(Free)E+ p_basis*V_orbitals  =        -467.690255
(Free)Eharris+ p_basis*V_orbitals  =        -467.690255

siesta: Electric dipole (a.u.)  =    0.317489    0.008651   -0.419895
siesta: Electric dipole (Debye) =    0.806978    0.021989   -1.067268

* Maximum dynamic memory allocated : Node    0 =     4 MB
* Maximum dynamic memory allocated : Node    1 =     4 MB
* Maximum dynamic memory allocated : Node    2 =     4 MB
* Maximum dynamic memory allocated : Node    3 =     4 MB
* Maximum dynamic memory allocated : Node    4 =     4 MB
* Maximum dynamic memory allocated : Node    5 =     4 MB
* Maximum dynamic memory allocated : Node    6 =     4 MB
* Maximum dynamic memory allocated : Node    7 =     4 MB
* Maximum dynamic memory allocated : Node    8 =     4 MB
* Maximum dynamic memory allocated : Node    9 =     4 MB

* Maximum memory occured during ranger                        

timer: CPU execution times:
timer:  Routine       Calls   Time/call    Tot.time        %
timer:  siesta            1    1942.824    1942.824   100.00
timer:  Setup             1       1.298       1.298     0.07
timer:  bands             1       0.001       0.001     0.00
timer:  writewave         1       0.003       0.003     0.00
timer:  KSV_init          1       0.001       0.001     0.00
timer:  IterMD         1500       1.294    1941.461    99.93
timer:  hsparse        1500       0.000       0.465     0.02
timer:  overlap        1500       0.001       1.366     0.07
timer:  IterSCF        1820       0.497     904.946    46.58
timer:  kinefsm        3000       0.001       1.585     0.08
timer:  nlefsm         3000       0.013      38.898     2.00
timer:  DHSCF          3320       0.456    1513.886    77.92
timer:  DHSCF1            1       0.160       0.160     0.01
timer:  DHSCF2            1       0.238       0.238     0.01
timer:  REORD         33202       0.001      19.120     0.98
timer:  POISON         3321       0.061     201.737    10.38
timer:  DHSCF3         3320       0.422    1399.483    72.03
timer:  rhoofd         3320       0.013      44.243     2.28
timer:  cellXC         3320       0.254     842.913    43.39
timer:  vmat           3320       0.031     101.692     5.23
timer:  MolMec         3000       0.000       0.095     0.00
timer:  diagon           23       0.055       1.268     0.07
timer:  r-eigvec         23       0.055       1.258     0.06
timer:  r-buildHS      1820       0.000       0.000     0.00
timer:  rdiag            23       0.055       1.256     0.06
timer:  rdiag1           23       0.005       0.125     0.01
timer:  rdiag2           23       0.020       0.451     0.02
timer:  rdiag3           23       0.027       0.632     0.03
timer:  rdiag4           23       0.001       0.027     0.00
timer:  r-buildD       1820       0.000       0.006     0.00
timer:  DHSCF4         1500       0.075     112.152     5.77
timer:  dfscf          1500       0.068     101.502     5.22
timer:  overfsm        1500       0.001       1.229     0.06
timer:  evolve         1797       0.050      90.391     4.65
timer:  r-evolgg       1797       0.000       0.000     0.00
timer:  zevolg.1       1797       0.011      19.034     0.98
timer:  zevolg.2       1797       0.001       1.586     0.08
timer:  zevolg.3       1797       0.000       0.032     0.00
timer:  zevolg.4       1797       0.012      20.772     1.07
timer:  zevolg.5       1797       0.001       1.350     0.07
timer:  zevolg.6       1797       0.000       0.070     0.00
timer:  optical           1       0.017       0.017     0.00
  

elaps: ELAPSED times:
elaps:  Routine       Calls   Time/call    Tot.time        %
elaps:  siesta            1     196.251     196.251   100.00
elaps:  Setup             1       0.130       0.130     0.07
elaps:  bands             1       0.000       0.000     0.00
elaps:  writewave         1       0.000       0.000     0.00
elaps:  KSV_init          1       0.000       0.000     0.00
elaps:  IterMD         1500       0.131     196.102    99.92
elaps:  hsparse        1500       0.000       0.051     0.03
elaps:  overlap        1500       0.000       0.147     0.07
elaps:  IterSCF        1820       0.051      91.943    46.85
elaps:  kinefsm        3000       0.000       0.165     0.08
elaps:  nlefsm         3000       0.001       3.787     1.93
elaps:  DHSCF          3320       0.044     145.499    74.14
elaps:  DHSCF1            1       0.013       0.013     0.01
elaps:  DHSCF2            1       0.027       0.027     0.01
elaps:  REORD         33202       0.000       2.089     1.06
elaps:  POISON         3321       0.006      20.404    10.40
elaps:  DHSCF3         3320       0.042     140.787    71.74
elaps:  rhoofd         3320       0.000       0.836     0.43
elaps:  cellXC         3320       0.025      84.507    43.06
elaps:  vmat           3320       0.003      10.212     5.20
elaps:  MolMec         3000       0.000       0.008     0.00
elaps:  diagon           23       0.005       0.126     0.06
elaps:  r-eigvec         23       0.005       0.126     0.06
elaps:  r-buildHS      1820       0.000       0.000     0.00
elaps:  rdiag            23       0.005       0.126     0.06
elaps:  rdiag1           23       0.001       0.012     0.01
elaps:  rdiag2           23       0.002       0.045     0.02
elaps:  rdiag3           23       0.003       0.063     0.03
elaps:  rdiag4           23       0.000       0.004     0.00
elaps:  r-buildD       1820       0.000       0.000     0.00
elaps:  DHSCF4         1500       0.003       4.490     2.29
elaps:  dfscf          1500       0.003       4.310     2.20
elaps:  overfsm        1500       0.000       0.135     0.07
elaps:  evolve         1797       0.005       9.512     4.85
elaps:  r-evolgg       1797       0.000       0.000     0.00
elaps:  zevolg.1       1797       0.001       1.918     0.98
elaps:  zevolg.2       1797       0.000       0.163     0.08
elaps:  zevolg.3       1797       0.000       0.003     0.00
elaps:  zevolg.4       1797       0.001       2.101     1.07
elaps:  zevolg.5       1797       0.000       0.132     0.07
elaps:  zevolg.6       1797       0.000       0.010     0.01
elaps:  optical           1       0.000       0.000     0.00
  
>> End of run:   2-DEC-2020  22:23:39
