Running on 10 processors
There are 1 iamges
Siesta Version:                                        tdap-2.2.3, based on siesta-3.2-pl-5
Architecture  : x86_64-unknown-linux-gnu--unknown
Compiler flags: mpif90 -g -O2 -ffree-line-length-none
PARALLEL version

* Running on   10 nodes in parallel
>> Start of run:   2-DEC-2020  20:37:30

                           ***********************       
                           *  WELCOME TO SIESTA  *       
                           ***********************       

reinit: Reading from standard input
************************** Dump of input data file ****************************
#DFT
XC.functional GGA
XC.authors  PBE
SCFMustConverge T
#MD
SolutionMethod      evolve
MD.TypeOfRun        verlet
MD.FinalTimeStep    500
TD.FinalTimeStep    500
MD.LengthTimeStep     0.00 fs
TD.LengthTimeStep   0.01 fs
MD.InitialTemperature  300 k
%block kgrid_Monkhorst_Pack
1 0 0 0.0
0 1 0 0.0
0 0 1 0.0
%endblock kgrid_Monkhorst_Pack
AtomicCoordinatesFormat  Fractional
LatticeConstant  1.0  Ang
NumberOfAtoms    3
NumberOfSpecies  2
%block LatticeVectors
       10.0        0.0000000000         0.0000000000
       0.0         10.0                 0.0000000000
       0.00        0.00                 10.0
%endblock LatticeVectors
%block ChemicalSpeciesLabel
   1    1    H
   2    8    O
%endblock ChemicalSpeciesLabel
%block AtomicCoordinatesAndAtomicSpecies
    0.44820475    0.41355314    0.41547532   1       1  H
    0.57091037    0.41168595    0.50808773   1       2  H
    0.47461484    0.41168595    0.50808773   2       3  O
%endblock AtomicCoordinatesAndAtomicSpecies
************************** End of input data file *****************************

reinit: -----------------------------------------------------------------------
reinit: System Name: 
reinit: -----------------------------------------------------------------------
reinit: System Label: siesta                                                      
reinit: -----------------------------------------------------------------------

initatom: Reading input for the pseudopotentials and atomic orbitals ----------
 Species number:            1  Label: H Atomic number:           1
 Species number:            2  Label: O Atomic number:           8
Ground state valence configuration:   1s01
Reading pseudopotential information in formatted form from H.psf

Valence configuration for pseudopotential generation:
1s( 1.00) rc: 1.25
2p( 0.00) rc: 1.25
3d( 0.00) rc: 1.25
4f( 0.00) rc: 1.25
Ground state valence configuration:   2s02  2p04
Reading pseudopotential information in formatted form from O.psf

Valence configuration for pseudopotential generation:
2s( 2.00) rc: 1.14
2p( 4.00) rc: 1.14
3d( 0.00) rc: 1.14
4f( 0.00) rc: 1.14
For H, standard SIESTA heuristics set lmxkb to 2
 (one more than the basis l, including polarization orbitals).
Use PS.lmax or PS.KBprojectors blocks to override.
For O, standard SIESTA heuristics set lmxkb to 3
 (one more than the basis l, including polarization orbitals).
Use PS.lmax or PS.KBprojectors blocks to override.

<basis_specs>
===============================================================================
H                    Z=   1    Mass=  1.0100        Charge= 0.17977+309
Lmxo=0 Lmxkb= 2    BasisType=split      Semic=F
L=0  Nsemic=0  Cnfigmx=1
          n=1  nzeta=2  polorb=1
            splnorm:   0.15000    
               vcte:    0.0000    
               rinn:    0.0000    
                rcs:    0.0000      0.0000    
            lambdas:    1.0000      1.0000    
-------------------------------------------------------------------------------
L=0  Nkbl=1  erefs: 0.17977+309
L=1  Nkbl=1  erefs: 0.17977+309
L=2  Nkbl=1  erefs: 0.17977+309
===============================================================================
</basis_specs>

atom: Called for H                     (Z =   1)

read_vps: Pseudopotential generation method:
read_vps: ATM3      Troullier-Martins                       
Total valence charge:    1.00000

xc_check: Exchange-correlation functional:
xc_check: GGA Perdew, Burke & Ernzerhof 1996
xc_check: WARNING: Pseudopotential generated with Ceperley-Alder functional
V l=0 = -2*Zval/r beyond r=  1.2343
V l=1 = -2*Zval/r beyond r=  1.2189
V l=2 = -2*Zval/r beyond r=  1.2189
All V_l potentials equal beyond r=  1.2343
This should be close to max(r_c) in ps generation
All pots = -2*Zval/r beyond r=  1.2343

VLOCAL1: 99.0% of the norm of Vloc inside     28.493 Ry
VLOCAL1: 99.9% of the norm of Vloc inside     64.935 Ry
atom: Maximum radius for 4*pi*r*r*local-pseudopot. charge    1.45251
atom: Maximum radius for r*vlocal+2*Zval:    1.21892
GHOST: No ghost state for L =  0
GHOST: No ghost state for L =  1
GHOST: No ghost state for L =  2

KBgen: Kleinman-Bylander projectors: 
   l= 0   rc=  1.364359   el= -0.488086   Ekb= -2.002077   kbcos= -0.347561
   l= 1   rc=  1.434438   el=  0.001075   Ekb= -0.501617   kbcos= -0.021754
   l= 2   rc=  1.470814   el=  0.002010   Ekb= -0.190607   kbcos= -0.002284

KBgen: Total number of  Kleinman-Bylander projectors:    9
atom: -------------------------------------------------------------------------

atom: SANKEY-TYPE ORBITALS:
atom: Selected multiple-zeta basis: split     

SPLIT: Orbitals with angular momentum L= 0

SPLIT: Basis orbitals for state 1s

SPLIT: PAO cut-off radius determined from an
SPLIT: energy shift=  0.020000 Ry

   izeta = 1
                 lambda =    1.000000
                     rc =    4.708991
                 energy =   -0.469191
                kinetic =    0.984891
    potential(screened) =   -1.454081
       potential(ionic) =   -1.971243

   izeta = 2
                 rmatch =    3.759707
              splitnorm =    0.150000
                 energy =   -0.351800
                kinetic =    1.584822
    potential(screened) =   -1.936622
       potential(ionic) =   -2.473950

POLgen: Perturbative polarization orbital with L=  1

POLgen: Polarization orbital for state 1s

   izeta = 1
                     rc =    4.708991
                 energy =    0.760113
                kinetic =    1.483507
    potential(screened) =   -0.723395
       potential(ionic) =   -1.207344
atom: Total number of Sankey-type orbitals:  5

atm_pop: Valence configuration (for local Pseudopot. screening):
 1s( 1.00)                                                            
Vna: chval, zval:    1.00000   1.00000

Vna:  Cut-off radius for the neutral-atom potential:   4.708991

atom: _________________________________________________________________________

<basis_specs>
===============================================================================
O                    Z=   8    Mass=  16.000        Charge= 0.17977+309
Lmxo=1 Lmxkb= 3    BasisType=split      Semic=F
L=0  Nsemic=0  Cnfigmx=2
          n=1  nzeta=2  polorb=0
            splnorm:   0.15000    
               vcte:    0.0000    
               rinn:    0.0000    
                rcs:    0.0000      0.0000    
            lambdas:    1.0000      1.0000    
L=1  Nsemic=0  Cnfigmx=2
          n=1  nzeta=2  polorb=1
            splnorm:   0.15000    
               vcte:    0.0000    
               rinn:    0.0000    
                rcs:    0.0000      0.0000    
            lambdas:    1.0000      1.0000    
-------------------------------------------------------------------------------
L=0  Nkbl=1  erefs: 0.17977+309
L=1  Nkbl=1  erefs: 0.17977+309
L=2  Nkbl=1  erefs: 0.17977+309
L=3  Nkbl=1  erefs: 0.17977+309
===============================================================================
</basis_specs>

atom: Called for O                     (Z =   8)

read_vps: Pseudopotential generation method:
read_vps: ATM3      Troullier-Martins                       
Total valence charge:    6.00000

xc_check: Exchange-correlation functional:
xc_check: GGA Perdew, Burke & Ernzerhof 1996
xc_check: WARNING: Pseudopotential generated with Ceperley-Alder functional
V l=0 = -2*Zval/r beyond r=  1.1278
V l=1 = -2*Zval/r beyond r=  1.1278
V l=2 = -2*Zval/r beyond r=  1.1278
V l=3 = -2*Zval/r beyond r=  1.1138
All V_l potentials equal beyond r=  1.1278
This should be close to max(r_c) in ps generation
All pots = -2*Zval/r beyond r=  1.1278

VLOCAL1: 99.0% of the norm of Vloc inside     34.126 Ry
VLOCAL1: 99.9% of the norm of Vloc inside     77.774 Ry
atom: Maximum radius for 4*pi*r*r*local-pseudopot. charge    1.37759
atom: Maximum radius for r*vlocal+2*Zval:    1.18566
GHOST: No ghost state for L =  0
GHOST: No ghost state for L =  1
GHOST: No ghost state for L =  2
GHOST: No ghost state for L =  3

KBgen: Kleinman-Bylander projectors: 
   l= 0   rc=  1.294105   el= -1.764717   Ekb=  9.120606   kbcos=  0.329038
   l= 1   rc=  1.294105   el= -0.698441   Ekb= -8.119783   kbcos= -0.400859
   l= 2   rc=  1.448233   el=  0.002031   Ekb= -2.039067   kbcos= -0.003490
   l= 3   rc=  1.561052   el=  0.003153   Ekb= -0.799361   kbcos= -0.000345

KBgen: Total number of  Kleinman-Bylander projectors:   16
atom: -------------------------------------------------------------------------

atom: SANKEY-TYPE ORBITALS:
atom: Selected multiple-zeta basis: split     

SPLIT: Orbitals with angular momentum L= 0

SPLIT: Basis orbitals for state 2s

SPLIT: PAO cut-off radius determined from an
SPLIT: energy shift=  0.020000 Ry

   izeta = 1
                 lambda =    1.000000
                     rc =    3.305093
                 energy =   -1.747165
                kinetic =    1.636523
    potential(screened) =   -3.383688
       potential(ionic) =  -11.346558

   izeta = 2
                 rmatch =    2.479194
              splitnorm =    0.150000
                 energy =   -1.484948
                kinetic =    2.492446
    potential(screened) =   -3.977393
       potential(ionic) =  -12.521955

SPLIT: Orbitals with angular momentum L= 1

SPLIT: Basis orbitals for state 2p

SPLIT: PAO cut-off radius determined from an
SPLIT: energy shift=  0.020000 Ry

   izeta = 1
                 lambda =    1.000000
                     rc =    3.840021
                 energy =   -0.679240
                kinetic =    5.142096
    potential(screened) =   -5.821336
       potential(ionic) =  -13.650628

   izeta = 2
                 rmatch =    2.479194
              splitnorm =    0.150000
                 energy =   -0.370047
                kinetic =    7.736199
    potential(screened) =   -8.106246
       potential(ionic) =  -16.831468

POLgen: Perturbative polarization orbital with L=  2

POLgen: Polarization orbital for state 2p

   izeta = 1
                     rc =    3.840021
                 energy =    2.519349
                kinetic =    4.956526
    potential(screened) =   -2.437177
       potential(ionic) =   -8.829757
atom: Total number of Sankey-type orbitals: 13

atm_pop: Valence configuration (for local Pseudopot. screening):
 2s( 2.00)                                                            
 2p( 4.00)                                                            
Vna: chval, zval:    6.00000   6.00000

Vna:  Cut-off radius for the neutral-atom potential:   3.840021

atom: _________________________________________________________________________

prinput: Basis input ----------------------------------------------------------

PAO.BasisType split     

%block ChemicalSpeciesLabel
    1    1 H                       # Species index, atomic number, species label
    2    8 O                       # Species index, atomic number, species label
%endblock ChemicalSpeciesLabel

%block PAO.Basis                 # Define Basis set
H                     1                    # Species label, number of l-shells
 n=1   0   2 P   1                   # n, l, Nzeta, Polarization, NzetaPol
   4.709      3.760   
   1.000      1.000   
O                     2                    # Species label, number of l-shells
 n=2   0   2                         # n, l, Nzeta 
   3.305      2.479   
   1.000      1.000   
 n=2   1   2 P   1                   # n, l, Nzeta, Polarization, NzetaPol
   3.840      2.479   
   1.000      1.000   
%endblock PAO.Basis

prinput: ----------------------------------------------------------------------

coor:   Atomic-coordinates input format  =     Fractional

siesta: Atomic coordinates (Bohr) and species
siesta:      8.46985   7.81502   7.85135  1        1
siesta:     10.78865   7.77974   9.60147  1        2
siesta:      8.96892   7.77974   9.60147  2        3

siesta: System type = molecule  

initatomlists: Number of atoms, orbitals, and projectors:      3    23    34

siesta: ******************** Simulation parameters ****************************
siesta:
siesta: The following are some of the parameters of the simulation.
siesta: A complete list of the parameters used, including default values,
siesta: can be found in file out.fdf
siesta:
redata: Non-Collinear-spin run           =     F
redata: SpinPolarized (Up/Down) run      =     F
redata: Number of spin components        =     1
redata: Long output                      =     F
redata: Number of Atomic Species         =        2
redata: Charge density info will appear in .RHO file
redata: Write Mulliken Pop.              =     NO
redata: Mesh Cutoff                      =   100.0000  Ry
redata: Net charge of the system         =     0.0000 |e|
redata: Max. number of SCF Iter          =       50
redata: SCF convergence failure will abort job
redata: Mixing is linear
redata: Mix DM in first SCF step ?       =     F
redata: Write Pulay info on disk?        =     F
redata: Discard 1st Pulay DM after  kick =     F
redata: New DM Mixing Weight             =     0.2500
redata: New DM Occupancy tolerance       = 0.000000000001
redata: No kicks to SCF
redata: DM Mixing Weight for Kicks       =     0.5000
redata: DM Tolerance for SCF             =     0.000100
redata: Require Energy convergence for SCF =     F
redata: DM Energy tolerance for SCF      =     0.000100 eV
redata: Require Harris convergence for SCF =     F
redata: DM Harris energy tolerance for SCF =     0.000100 eV
redata: Using Saved Data (generic)   =     F
redata: Use continuation files for DM    =     F
redata: Neglect nonoverlap interactions  =     F
redata: =================Using evolve method to do TDDFT work=================
redata: TDAP: The Final Step of the TDDFT calculation       =      500
redata: TDAP: The Step length of the TDDFT calculation      =     0.0100fs
redata: TDAP: Whether to read WaveFunction from file        =	    F
redata: TDAP: Write WaveFunction every   1000 steps
 redata: TDAP: The number of promoted electrons              =    0.0000000000000000     
 redata: TDAP: Electrons get promoted From Band              =            0
 redata: TDAP: Electrons get promoted to Band                =            0
redata: TDAP: The number of empty bands to consider         =        5
redata: TDAP: zmin of efield           = 0.000000000000
redata: TDAP: zmax of efield              = 1.000000000000
redata: TDAP: Whether to do FSSH      =	    F
redata: TDAP: How many steps per dephase     =	       0
redata: =======================================================================
redata: Electronic Temperature           =     0.0019  Ry
redata: Fix the spin of the system       =     F
redata: Dynamics option                  =     Verlet MD run
redata: Initial MD time step             =        1
redata:   Final MD time step             =      500
redata: Length of MD time step           =     0.0000  fs
redata: Initial Temperature of MD run    =   300.0000  K
redata: Perform a MD quench              =     F
redata: ***********************************************************************
Total number of electrons:     8.000000
Total ionic charge:     8.000000

* ProcessorY, Blocksize:    2   1

 Kpoints in:            1 . Kpoints trimmed:            1

siesta: k-grid: Number of k-points =     1
siesta: k-grid: Cutoff (effective) =     5.000 Ang
siesta: k-grid: Supercell and displacements
siesta: k-grid:    1   0   0      0.000
siesta: k-grid:    0   1   0      0.000
siesta: k-grid:    0   0   1      0.000

* Maximum dynamic memory allocated =     2 MB
 =================================================================================================
 ....................................-!$$$$Q$C!-..................................................
 ................................!$$$$$$$$$$$$$$$$Q$-.............................................
 .............................:$$$$$$$-.-$$$.$$$$$7$$$7...........................................
 ...........................>$$Q.$$$$$...$Q$.$$$$$!.-$$$-.........................................
 ...........................$$Q..$$$$$....!-.$$$$$!...$$$?........................................
 ...........................$$!..$$$$$.......$$$$$!...-Q$$$.......................................
 ...........................Q-...$$$$$.......$$$$$:....$$$$$......................................
 ................................$$$$$.......$$$$$!....7$$$Q-.......:$$$$-...............!$Q$$$$-.
 ................................$$$$$.......$$$$$!....!$$$$?.......$$$$$$......7$$$$$$:...$$$$$-.
 ................................$$$$$.......$$$$$!....-$$$$$......7$$$$$$O.......Q$$$$....C$$$$..
 ................................$$$$$.......$$$$$!....-$$$$$.....!$$:-$$$$C......$$$$Q--:$$Q$....
 ................................$$$$$.......$$$$$!....-$$$$$.....$$>..-$$$$:.....$$$$$...........
 ................................$$$$$.......$$$$$!....!$$$$7....$$$Q$$$$$$$$:....$$$$$...........
 ................................$$$$$.......$$$$$!....7$$$$-...!$$>.....$$$$$$$>$$$$$$?..........
 ................................$$$$$.......$$$$$:....$Q$$$....$$$.....$:........................
 ...................-??>.........$$$$$.......$$$$$!...-Q$$$....!$$Q$-.............................
 ..........>??...................$$$$$.......$$$$$!...$$Q$....C$-.................................
 ....!??..................:?....CQ$$$$:......$$$$$!.$$$$-...................77....................
 ?7?..........>....77...........$$$$$$$-....:$$$$$$$$$-..............!..........??>...............
 .........7...?!.........!.........-$Q$$....$$$$Q7........7.........?7...>.........:7?............
 ..........::........?......?.....7.............:?....-7......!........7...7..........?7-.........
 .....7...?........?......7....?!............!.....!>....7......-........?...?.........!7?........
 ....?...:.........7......!.....7.......-!:-.............?......?.............:.........>??.......
 ....7....>.........?................7?!-..->?>........-.......7.........7...>!..........??>......
 .....?...............?7....................................?7..............>?...........??.......
 .......?..................7??!......................>??!.................-?............??........
 .........77.......:............................................:.......7?............!7?.........
 .............??....................................................?7..............>?7...........
 ?.................!??!......................................7?7-................!?:..............
 ...!7......................!?????7!...........-!?7???7:......................7...................
 .........7-............................................................!7........................
 .................:-............................................>-................................
 .................................................................................................
 The following papers describe the method and practical implementation of the TDAP package:
 C. Lian, M.X. Guan, S.Q. Hu, J. Zhang, S. Meng. Photoexcitation in solids: First-principles quantum simulations by real-time TDDFT. Adv. Theo. Simul. 1, 1800055 (2018).
 W. Ma, J. Zhang, L. Yan, Y. Jiao, Y. Gao, S. Meng. Recent progresses in real-time local-basis implementation of time dependent density functional theory for electron-nucleus dynamics. Comp. Mater. Sci. 112, 478 (2016).
 J. Ren, E. Kaxiras, S. Meng. Optical properties of clusters and molecules from real-time time-dependent density functional theory using a self-consistent field. Molecular Physics 108, 1829 (2010).
 S. Meng, E. Kaxiras. Local basis-set and real time implementation of time-dependent density-functional theory for excited state dynamics simulations. J. Chem. Phys. 129, 054110 (2008).
 =================================================================================================

siesta:                 ==============================
                            Begin MD step =      1
                        ==============================

outcell: Unit cell vectors (Ang):
       10.000000    0.000000    0.000000
        0.000000   10.000000    0.000000
        0.000000    0.000000   10.000000

outcell: Cell vector modules (Ang)   :   10.000000   10.000000   10.000000
outcell: Cell angles (23,13,12) (deg):     90.0000     90.0000     90.0000
outcell: Cell volume (Ang**3)        :   1000.0000
New_DM. Step:     1
Initializing Density Matrix...

InitMesh: MESH =    64 x    64 x    64 =      262144
InitMesh: Mesh cutoff (required, used) =   100.000   113.204 Ry

* Maximum dynamic memory allocated =     4 MB

stepf: Fermi-Dirac step function

fermid: Calculating for lowest-exciton excited state

stepf: Fermi-Dirac step function

siesta: Program's energy decomposition (eV):
siesta: Ebs     =      -117.686478
siesta: Eions   =       815.854478
siesta: Ena     =       170.060777
siesta: Ekin    =       351.179876
siesta: Enl     =       -55.092970
siesta: DEna    =        -0.000003
siesta: DUscf   =         0.000000
siesta: DUext   =         0.000000
siesta: Exc     =      -113.802961
siesta: eta*DQ  =         0.000000
siesta: Emadel  =         0.000000
siesta: Emeta   =         0.000000
siesta: Emolmec =         0.000000
siesta: Ekinion =         0.000000
siesta: Eharris =      -468.718366
siesta: Etot    =      -463.509760
siesta: FreeEng =      -463.509760

siesta: iscf   Eharris(eV)      E_KS(eV)   FreeEng(eV)   dDmax  Ef(eV)
siesta:    1     -468.7184     -463.5098     -463.5098  1.3581 -2.8828
timer: Routine,Calls,Time,% = IterSCF        1       5.608  77.84
elaps: Routine,Calls,Wall,% = IterSCF        1       0.563  78.09
siesta:    2     -469.0251     -467.7722     -467.7722  0.1389  0.5614
siesta:    3     -468.3045     -467.9452     -467.9452  0.0321 -0.6671
siesta:    4     -468.2430     -468.0232     -468.0232  0.0121 -1.0049
siesta:    5     -468.2367     -468.0770     -468.0770  0.0142 -1.0969
siesta:    6     -468.2359     -468.1168     -468.1168  0.0119 -1.1189
siesta:    7     -468.2357     -468.1465     -468.1465  0.0091 -1.1219
siesta:    8     -468.2357     -468.1688     -468.1688  0.0067 -1.1206
siesta:    9     -468.2356     -468.1855     -468.1855  0.0049 -1.1188
siesta:   10     -468.2356     -468.1980     -468.1980  0.0036 -1.1174
siesta:   11     -468.2356     -468.2074     -468.2074  0.0026 -1.1164
siesta:   12     -468.2356     -468.2145     -468.2145  0.0019 -1.1158
siesta:   13     -468.2356     -468.2198     -468.2198  0.0014 -1.1155
siesta:   14     -468.2356     -468.2237     -468.2237  0.0011 -1.1153
siesta:   15     -468.2356     -468.2267     -468.2267  0.0008 -1.1151
siesta:   16     -468.2356     -468.2289     -468.2289  0.0006 -1.1151
siesta:   17     -468.2356     -468.2306     -468.2306  0.0004 -1.1150
siesta:   18     -468.2356     -468.2318     -468.2318  0.0003 -1.1150
siesta:   19     -468.2356     -468.2328     -468.2328  0.0002 -1.1150
siesta:   20     -468.2356     -468.2335     -468.2335  0.0002 -1.1150
siesta:   21     -468.2356     -468.2340     -468.2340  0.0001 -1.1150
siesta:   22     -468.2356     -468.2344     -468.2344  0.0001 -1.1150
siesta:   23     -468.2356     -468.2347     -468.2347  0.0001 -1.1150

siesta: E_KS(eV) =             -468.2349

siesta: E_KS - E_eggbox =      -468.2349

siesta: Atomic forces (eV/Ang):
----------------------------------------
   Tot   -0.063717   -0.464383   -0.053546
----------------------------------------
   Max    0.461088
   Res    0.157069    sqrt( Sum f_i^2 / 3N )
----------------------------------------
   Max    0.461088    constrained

Stress-tensor-Voigt (kbar):        0.03        0.03        0.11        0.10        0.05       -0.01
(Free)E + p*V (eV/cell)     -468.2698
Target enthalpy (eV/cell)     -468.2349

siesta: Stress tensor (static) (eV/Ang**3):
         0.000053    0.000000    0.000010
         0.000000    0.000122   -0.000000
         0.000010   -0.000000    0.000083

siesta: Pressure (static):         -0.13809997  kBar

siesta: Stress tensor (total) (eV/Ang**3):
         0.000018    0.000060   -0.000006
         0.000060    0.000019    0.000031
        -0.000006    0.000031    0.000067

siesta: Pressure (total):         -0.05586072  kBar

TDAP : Electric dipole (a.u.)  =    0.316941    0.008625   -0.419334
TDAP : Electric dipole (Debye) =    0.805584    0.021923   -1.065840
TDAP : Energy  :  -24.22 -12.51  -8.10  -6.17   2.04   4.25  10.67  12.36
TDAP : Partition :    2.00   2.00   2.00   2.00   0.00   0.00   0.00   0.00

siesta: Temp_ion =     300.000 K

* Maximum dynamic memory allocated =     4 MB

siesta:                 ==============================
                            Begin MD step =      2
                        ==============================

outcell: Unit cell vectors (Ang):
       10.000000    0.000000    0.000000
        0.000000   10.000000    0.000000
        0.000000    0.000000   10.000000

outcell: Cell vector modules (Ang)   :   10.000000   10.000000   10.000000
outcell: Cell angles (23,13,12) (deg):     90.0000     90.0000     90.0000
outcell: Cell volume (Ang**3)        :   1000.0000
New_DM. Step:     2
Re-using DM from previous geometry...
Re-using DM without extrapolation for lack of history
TDAP: read envelope from Gaussian envelope parameters

TDAP: Electric Field

TDAP: External EField    0.000000    0.000000    0.000000 Ry/Bohr/e

siesta: iscf   Eharris(eV)      E_KS(eV)   FreeEng(eV)   dDmax  Ef(eV)
siesta:    1     -468.2356     -468.2349     -468.2349  0.0000 -1.1150

siesta: E_KS(eV) =             -468.2356

siesta: Atomic forces (eV/Ang):
----------------------------------------
   Tot   -0.063726   -0.464393   -0.053530
----------------------------------------
   Max    0.461085
   Res    0.157049    sqrt( Sum f_i^2 / 3N )
----------------------------------------
   Max    0.461085    constrained

Stress-tensor-Voigt (kbar):        0.03        0.03        0.11        0.10        0.05       -0.01
(Free)E + p*V (eV/cell)     -468.2709
Target enthalpy (eV/cell)     -468.2356

siesta: Stress tensor (static) (eV/Ang**3):
         0.000053    0.000000    0.000011
         0.000000    0.000122   -0.000000
         0.000011   -0.000000    0.000084

siesta: Pressure (static):         -0.13876468  kBar

siesta: Stress tensor (total) (eV/Ang**3):
         0.000019    0.000060   -0.000006
         0.000060    0.000019    0.000031
        -0.000006    0.000031    0.000067

siesta: Pressure (total):         -0.05652543  kBar

TDAP : Electric dipole (a.u.)  =    0.316942    0.008625   -0.419335
TDAP : Electric dipole (Debye) =    0.805587    0.021923   -1.065844
TDAP : Energy  :  -24.22 -12.51  -8.10  -6.17   2.04   4.25  10.67  12.36
TDAP : Partition :    2.00   2.00   2.00   2.00   0.00   0.00   0.00   0.00

siesta: Temp_ion =     300.000 K

* Maximum dynamic memory allocated =     4 MB

siesta:                 ==============================
                            Begin MD step =      3
                        ==============================

outcell: Unit cell vectors (Ang):
       10.000000    0.000000    0.000000
        0.000000   10.000000    0.000000
        0.000000    0.000000   10.000000

outcell: Cell vector modules (Ang)   :   10.000000   10.000000   10.000000
outcell: Cell angles (23,13,12) (deg):     90.0000     90.0000     90.0000
outcell: Cell volume (Ang**3)        :   1000.0000
New_DM. Step:     3
Re-using DM from previous geometry...
Extrapolating Density Matrix...

TDAP: Electric Field

TDAP: External EField    0.000000    0.000000    0.000000 Ry/Bohr/e

siesta: iscf   Eharris(eV)      E_KS(eV)   FreeEng(eV)   dDmax  Ef(eV)
siesta:    1     -468.2356     -468.2363     -468.2363  0.0000 -1.1150

siesta: E_KS(eV) =             -468.2356

siesta: Atomic forces (eV/Ang):
----------------------------------------
   Tot   -0.063735   -0.464388   -0.053533
----------------------------------------
   Max    0.461080
   Res    0.157048    sqrt( Sum f_i^2 / 3N )
----------------------------------------
   Max    0.461080    constrained

Stress-tensor-Voigt (kbar):        0.03        0.03        0.11        0.10        0.05       -0.01
(Free)E + p*V (eV/cell)     -468.2709
Target enthalpy (eV/cell)     -468.2356

siesta: Stress tensor (static) (eV/Ang**3):
         0.000053    0.000000    0.000011
         0.000000    0.000122   -0.000000
         0.000011   -0.000000    0.000084

siesta: Pressure (static):         -0.13875309  kBar

siesta: Stress tensor (total) (eV/Ang**3):
         0.000019    0.000060   -0.000006
         0.000060    0.000019    0.000031
        -0.000006    0.000031    0.000067

siesta: Pressure (total):         -0.05651384  kBar

TDAP : Electric dipole (a.u.)  =    0.316942    0.008625   -0.419335
TDAP : Electric dipole (Debye) =    0.805587    0.021923   -1.065844
TDAP : Energy  :  -24.22 -12.51  -8.10  -6.17   2.04   4.25  10.67  12.36
TDAP : Partition :    2.00   2.00   2.00   2.00   0.00   0.00   0.00   0.00

siesta: Temp_ion =     300.000 K

* Maximum dynamic memory allocated =     4 MB

siesta:                 ==============================
                            Begin MD step =      4
                        ==============================

outcell: Unit cell vectors (Ang):
       10.000000    0.000000    0.000000
        0.000000   10.000000    0.000000
        0.000000    0.000000   10.000000

outcell: Cell vector modules (Ang)   :   10.000000   10.000000   10.000000
outcell: Cell angles (23,13,12) (deg):     90.0000     90.0000     90.0000
outcell: Cell volume (Ang**3)        :   1000.0000
New_DM. Step:     4
Re-using DM from previous geometry...
Extrapolating Density Matrix...

TDAP: Electric Field

TDAP: External EField    0.000000    0.000000    0.000000 Ry/Bohr/e

siesta: iscf   Eharris(eV)      E_KS(eV)   FreeEng(eV)   dDmax  Ef(eV)
siesta:    1     -468.2356     -468.2356     -468.2356  0.0000 -1.1150

siesta: E_KS(eV) =             -468.2356

siesta: Atomic forces (eV/Ang):
----------------------------------------
   Tot   -0.063712   -0.464393   -0.053534
----------------------------------------
   Max    0.461085
   Res    0.157049    sqrt( Sum f_i^2 / 3N )
----------------------------------------
   Max    0.461085    constrained

Stress-tensor-Voigt (kbar):        0.03        0.03        0.11        0.10        0.05       -0.01
(Free)E + p*V (eV/cell)     -468.2709
Target enthalpy (eV/cell)     -468.2356

siesta: Stress tensor (static) (eV/Ang**3):
         0.000053    0.000000    0.000011
         0.000000    0.000122   -0.000000
         0.000011   -0.000000    0.000084

siesta: Pressure (static):         -0.13875535  kBar

siesta: Stress tensor (total) (eV/Ang**3):
         0.000019    0.000060   -0.000006
         0.000060    0.000019    0.000031
        -0.000006    0.000031    0.000067

siesta: Pressure (total):         -0.05651610  kBar

TDAP : Electric dipole (a.u.)  =    0.316942    0.008625   -0.419335
TDAP : Electric dipole (Debye) =    0.805587    0.021924   -1.065845
TDAP : Energy  :  -24.22 -12.51  -8.10  -6.17   2.04   4.25  10.67  12.36
TDAP : Partition :    2.00   2.00   2.00   2.00   0.00   0.00   0.00   0.00

siesta: Temp_ion =     300.000 K

* Maximum dynamic memory allocated =     4 MB

siesta:                 ==============================
                            Begin MD step =      5
                        ==============================

outcell: Unit cell vectors (Ang):
       10.000000    0.000000    0.000000
        0.000000   10.000000    0.000000
        0.000000    0.000000   10.000000

outcell: Cell vector modules (Ang)   :   10.000000   10.000000   10.000000
outcell: Cell angles (23,13,12) (deg):     90.0000     90.0000     90.0000
outcell: Cell volume (Ang**3)        :   1000.0000
New_DM. Step:     5
Re-using DM from previous geometry...
Extrapolating Density Matrix...

TDAP: Electric Field

TDAP: External EField    0.000000    0.000000    0.000000 Ry/Bohr/e

siesta: iscf   Eharris(eV)      E_KS(eV)   FreeEng(eV)   dDmax  Ef(eV)
siesta:    1     -468.2356     -468.2356     -468.2356  0.0000 -1.1150

siesta: E_KS(eV) =             -468.2356

siesta: Atomic forces (eV/Ang):
----------------------------------------
   Tot   -0.063709   -0.464389   -0.053538
----------------------------------------
   Max    0.461081
   Res    0.157048    sqrt( Sum f_i^2 / 3N )
----------------------------------------
   Max    0.461081    constrained

Stress-tensor-Voigt (kbar):        0.03        0.03        0.11        0.10        0.05       -0.01
(Free)E + p*V (eV/cell)     -468.2709
Target enthalpy (eV/cell)     -468.2356

siesta: Stress tensor (static) (eV/Ang**3):
         0.000053    0.000000    0.000011
         0.000000    0.000122   -0.000000
         0.000011   -0.000000    0.000084

siesta: Pressure (static):         -0.13874553  kBar

siesta: Stress tensor (total) (eV/Ang**3):
         0.000019    0.000060   -0.000006
         0.000060    0.000019    0.000031
        -0.000006    0.000031    0.000067

siesta: Pressure (total):         -0.05650628  kBar

TDAP : Electric dipole (a.u.)  =    0.316942    0.008625   -0.419335
TDAP : Electric dipole (Debye) =    0.805588    0.021924   -1.065845
TDAP : Energy  :  -24.22 -12.51  -8.10  -6.17   2.04   4.25  10.67  12.36
TDAP : Partition :    2.00   2.00   2.00   2.00   0.00   0.00   0.00   0.00

siesta: Temp_ion =     300.000 K

* Maximum dynamic memory allocated =     4 MB

siesta:                 ==============================
                            Begin MD step =      6
                        ==============================

outcell: Unit cell vectors (Ang):
       10.000000    0.000000    0.000000
        0.000000   10.000000    0.000000
        0.000000    0.000000   10.000000

outcell: Cell vector modules (Ang)   :   10.000000   10.000000   10.000000
outcell: Cell angles (23,13,12) (deg):     90.0000     90.0000     90.0000
outcell: Cell volume (Ang**3)        :   1000.0000
New_DM. Step:     6
Re-using DM from previous geometry...
Extrapolating Density Matrix...

TDAP: Electric Field

TDAP: External EField    0.000000    0.000000    0.000000 Ry/Bohr/e

siesta: iscf   Eharris(eV)      E_KS(eV)   FreeEng(eV)   dDmax  Ef(eV)
siesta:    1     -468.2356     -468.2356     -468.2356  0.0000 -1.1150

siesta: E_KS(eV) =             -468.2356

siesta: Atomic forces (eV/Ang):
----------------------------------------
   Tot   -0.063716   -0.464388   -0.053517
----------------------------------------
   Max    0.461080
   Res    0.157047    sqrt( Sum f_i^2 / 3N )
----------------------------------------
   Max    0.461080    constrained

Stress-tensor-Voigt (kbar):        0.03        0.03        0.11        0.10        0.05       -0.01
(Free)E + p*V (eV/cell)     -468.2709
Target enthalpy (eV/cell)     -468.2356

siesta: Stress tensor (static) (eV/Ang**3):
         0.000053    0.000000    0.000011
         0.000000    0.000122   -0.000000
         0.000011   -0.000000    0.000084

siesta: Pressure (static):         -0.13874432  kBar

siesta: Stress tensor (total) (eV/Ang**3):
         0.000019    0.000060   -0.000006
         0.000060    0.000019    0.000031
        -0.000006    0.000031    0.000067

siesta: Pressure (total):         -0.05650507  kBar

TDAP : Electric dipole (a.u.)  =    0.316942    0.008625   -0.419335
TDAP : Electric dipole (Debye) =    0.805587    0.021923   -1.065844
TDAP : Energy  :  -24.22 -12.51  -8.10  -6.17   2.04   4.25  10.67  12.36
TDAP : Partition :    2.00   2.00   2.00   2.00   0.00   0.00   0.00   0.00

siesta: Temp_ion =     300.000 K

* Maximum dynamic memory allocated =     4 MB

siesta:                 ==============================
                            Begin MD step =      7
                        ==============================

outcell: Unit cell vectors (Ang):
       10.000000    0.000000    0.000000
        0.000000   10.000000    0.000000
        0.000000    0.000000   10.000000

outcell: Cell vector modules (Ang)   :   10.000000   10.000000   10.000000
outcell: Cell angles (23,13,12) (deg):     90.0000     90.0000     90.0000
outcell: Cell volume (Ang**3)        :   1000.0000
New_DM. Step:     7
Re-using DM from previous geometry...
Extrapolating Density Matrix...

TDAP: Electric Field

TDAP: External EField    0.000000    0.000000    0.000000 Ry/Bohr/e

siesta: iscf   Eharris(eV)      E_KS(eV)   FreeEng(eV)   dDmax  Ef(eV)
siesta:    1     -468.2356     -468.2356     -468.2356  0.0000 -1.1150

siesta: E_KS(eV) =             -468.2356

siesta: Atomic forces (eV/Ang):
----------------------------------------
   Tot   -0.063715   -0.464404   -0.053534
----------------------------------------
   Max    0.461096
   Res    0.157052    sqrt( Sum f_i^2 / 3N )
----------------------------------------
   Max    0.461096    constrained

Stress-tensor-Voigt (kbar):        0.03        0.03        0.11        0.10        0.05       -0.01
(Free)E + p*V (eV/cell)     -468.2709
Target enthalpy (eV/cell)     -468.2356

siesta: Stress tensor (static) (eV/Ang**3):
         0.000053    0.000000    0.000011
         0.000000    0.000122   -0.000000
         0.000011   -0.000000    0.000084

siesta: Pressure (static):         -0.13875921  kBar

siesta: Stress tensor (total) (eV/Ang**3):
         0.000019    0.000060   -0.000006
         0.000060    0.000019    0.000031
        -0.000006    0.000031    0.000067

siesta: Pressure (total):         -0.05651996  kBar

TDAP : Electric dipole (a.u.)  =    0.316942    0.008625   -0.419335
TDAP : Electric dipole (Debye) =    0.805586    0.021924   -1.065843
TDAP : Energy  :  -24.22 -12.51  -8.10  -6.17   2.04   4.25  10.67  12.36
TDAP : Partition :    2.00   2.00   2.00   2.00   0.00   0.00   0.00   0.00

siesta: Temp_ion =     300.000 K

* Maximum dynamic memory allocated =     4 MB

siesta:                 ==============================
                            Begin MD step =      8
                        ==============================

outcell: Unit cell vectors (Ang):
       10.000000    0.000000    0.000000
        0.000000   10.000000    0.000000
        0.000000    0.000000   10.000000

outcell: Cell vector modules (Ang)   :   10.000000   10.000000   10.000000
outcell: Cell angles (23,13,12) (deg):     90.0000     90.0000     90.0000
outcell: Cell volume (Ang**3)        :   1000.0000
New_DM. Step:     8
Re-using DM from previous geometry...
Extrapolating Density Matrix...

TDAP: Electric Field

TDAP: External EField    0.000000    0.000000    0.000000 Ry/Bohr/e

siesta: iscf   Eharris(eV)      E_KS(eV)   FreeEng(eV)   dDmax  Ef(eV)
siesta:    1     -468.2356     -468.2356     -468.2356  0.0000 -1.1150

siesta: E_KS(eV) =             -468.2356

siesta: Atomic forces (eV/Ang):
----------------------------------------
   Tot   -0.063715   -0.464394   -0.053520
----------------------------------------
   Max    0.461087
   Res    0.157049    sqrt( Sum f_i^2 / 3N )
----------------------------------------
   Max    0.461087    constrained

Stress-tensor-Voigt (kbar):        0.03        0.03        0.11        0.10        0.05       -0.01
(Free)E + p*V (eV/cell)     -468.2709
Target enthalpy (eV/cell)     -468.2356

siesta: Stress tensor (static) (eV/Ang**3):
         0.000053    0.000000    0.000011
         0.000000    0.000122   -0.000000
         0.000011   -0.000000    0.000084

siesta: Pressure (static):         -0.13876178  kBar

siesta: Stress tensor (total) (eV/Ang**3):
         0.000019    0.000060   -0.000006
         0.000060    0.000019    0.000031
        -0.000006    0.000031    0.000067

siesta: Pressure (total):         -0.05652253  kBar

TDAP : Electric dipole (a.u.)  =    0.316942    0.008625   -0.419335
TDAP : Electric dipole (Debye) =    0.805586    0.021924   -1.065843
TDAP : Energy  :  -24.22 -12.51  -8.10  -6.17   2.04   4.25  10.67  12.36
TDAP : Partition :    2.00   2.00   2.00   2.00   0.00   0.00   0.00   0.00

siesta: Temp_ion =     300.000 K

* Maximum dynamic memory allocated =     4 MB

siesta:                 ==============================
                            Begin MD step =      9
                        ==============================

outcell: Unit cell vectors (Ang):
       10.000000    0.000000    0.000000
        0.000000   10.000000    0.000000
        0.000000    0.000000   10.000000

outcell: Cell vector modules (Ang)   :   10.000000   10.000000   10.000000
outcell: Cell angles (23,13,12) (deg):     90.0000     90.0000     90.0000
outcell: Cell volume (Ang**3)        :   1000.0000
New_DM. Step:     9
Re-using DM from previous geometry...
Extrapolating Density Matrix...

TDAP: Electric Field

TDAP: External EField    0.000000    0.000000    0.000000 Ry/Bohr/e

siesta: iscf   Eharris(eV)      E_KS(eV)   FreeEng(eV)   dDmax  Ef(eV)
siesta:    1     -468.2356     -468.2356     -468.2356  0.0000 -1.1150

siesta: E_KS(eV) =             -468.2356

siesta: Atomic forces (eV/Ang):
----------------------------------------
   Tot   -0.063726   -0.464407   -0.053526
----------------------------------------
   Max    0.461100
   Res    0.157054    sqrt( Sum f_i^2 / 3N )
----------------------------------------
   Max    0.461100    constrained

Stress-tensor-Voigt (kbar):        0.03        0.03        0.11        0.10        0.05       -0.01
(Free)E + p*V (eV/cell)     -468.2709
Target enthalpy (eV/cell)     -468.2356

siesta: Stress tensor (static) (eV/Ang**3):
         0.000053    0.000000    0.000011
         0.000000    0.000122   -0.000000
         0.000011   -0.000000    0.000084

siesta: Pressure (static):         -0.13876038  kBar

siesta: Stress tensor (total) (eV/Ang**3):
         0.000019    0.000060   -0.000006
         0.000060    0.000019    0.000031
        -0.000006    0.000031    0.000067

siesta: Pressure (total):         -0.05652113  kBar

TDAP : Electric dipole (a.u.)  =    0.316942    0.008625   -0.419335
TDAP : Electric dipole (Debye) =    0.805587    0.021924   -1.065844
TDAP : Energy  :  -24.22 -12.51  -8.10  -6.17   2.04   4.25  10.67  12.36
TDAP : Partition :    2.00   2.00   2.00   2.00   0.00   0.00   0.00   0.00

siesta: Temp_ion =     300.000 K

* Maximum dynamic memory allocated =     4 MB

siesta:                 ==============================
                            Begin MD step =     10
                        ==============================

outcell: Unit cell vectors (Ang):
       10.000000    0.000000    0.000000
        0.000000   10.000000    0.000000
        0.000000    0.000000   10.000000

outcell: Cell vector modules (Ang)   :   10.000000   10.000000   10.000000
outcell: Cell angles (23,13,12) (deg):     90.0000     90.0000     90.0000
outcell: Cell volume (Ang**3)        :   1000.0000
New_DM. Step:    10
Re-using DM from previous geometry...
Extrapolating Density Matrix...

TDAP: Electric Field

TDAP: External EField    0.000000    0.000000    0.000000 Ry/Bohr/e

siesta: iscf   Eharris(eV)      E_KS(eV)   FreeEng(eV)   dDmax  Ef(eV)
siesta:    1     -468.2356     -468.2356     -468.2356  0.0000 -1.1150

siesta: E_KS(eV) =             -468.2356

siesta: Atomic forces (eV/Ang):
----------------------------------------
   Tot   -0.063722   -0.464401   -0.053529
----------------------------------------
   Max    0.461094
   Res    0.157052    sqrt( Sum f_i^2 / 3N )
----------------------------------------
   Max    0.461094    constrained

Stress-tensor-Voigt (kbar):        0.03        0.03        0.11        0.10        0.05       -0.01
(Free)E + p*V (eV/cell)     -468.2709
Target enthalpy (eV/cell)     -468.2356

siesta: Stress tensor (static) (eV/Ang**3):
         0.000053    0.000000    0.000011
         0.000000    0.000122   -0.000000
         0.000011   -0.000000    0.000084

siesta: Pressure (static):         -0.13875094  kBar

siesta: Stress tensor (total) (eV/Ang**3):
         0.000019    0.000060   -0.000006
         0.000060    0.000019    0.000031
        -0.000006    0.000031    0.000067

siesta: Pressure (total):         -0.05651169  kBar

TDAP : Electric dipole (a.u.)  =    0.316942    0.008625   -0.419335
TDAP : Electric dipole (Debye) =    0.805588    0.021924   -1.065845
TDAP : Energy  :  -24.22 -12.51  -8.10  -6.17   2.04   4.25  10.67  12.36
TDAP : Partition :    2.00   2.00   2.00   2.00   0.00   0.00   0.00   0.00

siesta: Temp_ion =     300.000 K

* Maximum dynamic memory allocated =     4 MB

siesta:                 ==============================
                            Begin MD step =     11
                        ==============================

outcell: Unit cell vectors (Ang):
       10.000000    0.000000    0.000000
        0.000000   10.000000    0.000000
        0.000000    0.000000   10.000000

outcell: Cell vector modules (Ang)   :   10.000000   10.000000   10.000000
outcell: Cell angles (23,13,12) (deg):     90.0000     90.0000     90.0000
outcell: Cell volume (Ang**3)        :   1000.0000
New_DM. Step:    11
Re-using DM from previous geometry...
Extrapolating Density Matrix...

TDAP: Electric Field

TDAP: External EField    0.000000    0.000000    0.000000 Ry/Bohr/e

siesta: iscf   Eharris(eV)      E_KS(eV)   FreeEng(eV)   dDmax  Ef(eV)
siesta:    1     -468.2356     -468.2356     -468.2356  0.0000 -1.1150

siesta: E_KS(eV) =             -468.2356

siesta: Atomic forces (eV/Ang):
----------------------------------------
   Tot   -0.063707   -0.464406   -0.053522
----------------------------------------
   Max    0.461099
   Res    0.157053    sqrt( Sum f_i^2 / 3N )
----------------------------------------
   Max    0.461099    constrained

Stress-tensor-Voigt (kbar):        0.03        0.03        0.11        0.10        0.05       -0.01
(Free)E + p*V (eV/cell)     -468.2709
Target enthalpy (eV/cell)     -468.2356

siesta: Stress tensor (static) (eV/Ang**3):
         0.000053    0.000000    0.000011
         0.000000    0.000122   -0.000000
         0.000011   -0.000000    0.000084

siesta: Pressure (static):         -0.13875266  kBar

siesta: Stress tensor (total) (eV/Ang**3):
         0.000019    0.000060   -0.000006
         0.000060    0.000019    0.000031
        -0.000006    0.000031    0.000067

siesta: Pressure (total):         -0.05651341  kBar

TDAP : Electric dipole (a.u.)  =    0.316943    0.008625   -0.419336
TDAP : Electric dipole (Debye) =    0.805588    0.021924   -1.065846
TDAP : Energy  :  -24.22 -12.51  -8.10  -6.17   2.04   4.25  10.67  12.36
TDAP : Partition :    2.00   2.00   2.00   2.00   0.00   0.00   0.00   0.00

siesta: Temp_ion =     300.000 K

* Maximum dynamic memory allocated =     4 MB

siesta:                 ==============================
                            Begin MD step =     12
                        ==============================

outcell: Unit cell vectors (Ang):
       10.000000    0.000000    0.000000
        0.000000   10.000000    0.000000
        0.000000    0.000000   10.000000

outcell: Cell vector modules (Ang)   :   10.000000   10.000000   10.000000
outcell: Cell angles (23,13,12) (deg):     90.0000     90.0000     90.0000
outcell: Cell volume (Ang**3)        :   1000.0000
New_DM. Step:    12
Re-using DM from previous geometry...
Extrapolating Density Matrix...

TDAP: Electric Field

TDAP: External EField    0.000000    0.000000    0.000000 Ry/Bohr/e

siesta: iscf   Eharris(eV)      E_KS(eV)   FreeEng(eV)   dDmax  Ef(eV)
siesta:    1     -468.2356     -468.2356     -468.2356  0.0000 -1.1150

siesta: E_KS(eV) =             -468.2356

siesta: Atomic forces (eV/Ang):
----------------------------------------
   Tot   -0.063713   -0.464395   -0.053527
----------------------------------------
   Max    0.461087
   Res    0.157049    sqrt( Sum f_i^2 / 3N )
----------------------------------------
   Max    0.461087    constrained

Stress-tensor-Voigt (kbar):        0.03        0.03        0.11        0.10        0.05       -0.01
(Free)E + p*V (eV/cell)     -468.2709
Target enthalpy (eV/cell)     -468.2356

siesta: Stress tensor (static) (eV/Ang**3):
         0.000053    0.000000    0.000011
         0.000000    0.000122   -0.000000
         0.000011   -0.000000    0.000084

siesta: Pressure (static):         -0.13876787  kBar

siesta: Stress tensor (total) (eV/Ang**3):
         0.000019    0.000060   -0.000006
         0.000060    0.000019    0.000031
        -0.000006    0.000031    0.000067

siesta: Pressure (total):         -0.05652863  kBar

TDAP : Electric dipole (a.u.)  =    0.316942    0.008625   -0.419335
TDAP : Electric dipole (Debye) =    0.805588    0.021923   -1.065845
TDAP : Energy  :  -24.22 -12.51  -8.10  -6.17   2.04   4.25  10.67  12.36
TDAP : Partition :    2.00   2.00   2.00   2.00   0.00   0.00   0.00   0.00

siesta: Temp_ion =     300.000 K

* Maximum dynamic memory allocated =     4 MB

siesta:                 ==============================
                            Begin MD step =     13
                        ==============================

outcell: Unit cell vectors (Ang):
       10.000000    0.000000    0.000000
        0.000000   10.000000    0.000000
        0.000000    0.000000   10.000000

outcell: Cell vector modules (Ang)   :   10.000000   10.000000   10.000000
outcell: Cell angles (23,13,12) (deg):     90.0000     90.0000     90.0000
outcell: Cell volume (Ang**3)        :   1000.0000
New_DM. Step:    13
Re-using DM from previous geometry...
Extrapolating Density Matrix...

TDAP: Electric Field

TDAP: External EField    0.000000    0.000000    0.000000 Ry/Bohr/e

siesta: iscf   Eharris(eV)      E_KS(eV)   FreeEng(eV)   dDmax  Ef(eV)
siesta:    1     -468.2356     -468.2356     -468.2356  0.0000 -1.1150

siesta: E_KS(eV) =             -468.2356

siesta: Atomic forces (eV/Ang):
----------------------------------------
   Tot   -0.063723   -0.464398   -0.053520
----------------------------------------
   Max    0.461092
   Res    0.157051    sqrt( Sum f_i^2 / 3N )
----------------------------------------
   Max    0.461092    constrained

Stress-tensor-Voigt (kbar):        0.03        0.03        0.11        0.10        0.05       -0.01
(Free)E + p*V (eV/cell)     -468.2709
Target enthalpy (eV/cell)     -468.2356

siesta: Stress tensor (static) (eV/Ang**3):
         0.000053    0.000000    0.000011
         0.000000    0.000122   -0.000000
         0.000011   -0.000000    0.000084

siesta: Pressure (static):         -0.13876317  kBar

siesta: Stress tensor (total) (eV/Ang**3):
         0.000019    0.000060   -0.000006
         0.000060    0.000019    0.000031
        -0.000006    0.000031    0.000067

siesta: Pressure (total):         -0.05652392  kBar

TDAP : Electric dipole (a.u.)  =    0.316942    0.008625   -0.419335
TDAP : Electric dipole (Debye) =    0.805587    0.021923   -1.065844
TDAP : Energy  :  -24.22 -12.51  -8.10  -6.17   2.04   4.25  10.67  12.36
TDAP : Partition :    2.00   2.00   2.00   2.00   0.00   0.00   0.00   0.00

siesta: Temp_ion =     300.000 K

* Maximum dynamic memory allocated =     4 MB

siesta:                 ==============================
                            Begin MD step =     14
                        ==============================

outcell: Unit cell vectors (Ang):
       10.000000    0.000000    0.000000
        0.000000   10.000000    0.000000
        0.000000    0.000000   10.000000

outcell: Cell vector modules (Ang)   :   10.000000   10.000000   10.000000
outcell: Cell angles (23,13,12) (deg):     90.0000     90.0000     90.0000
outcell: Cell volume (Ang**3)        :   1000.0000
New_DM. Step:    14
Re-using DM from previous geometry...
Extrapolating Density Matrix...

TDAP: Electric Field

TDAP: External EField    0.000000    0.000000    0.000000 Ry/Bohr/e

siesta: iscf   Eharris(eV)      E_KS(eV)   FreeEng(eV)   dDmax  Ef(eV)
siesta:    1     -468.2356     -468.2356     -468.2356  0.0000 -1.1150

siesta: E_KS(eV) =             -468.2356

siesta: Atomic forces (eV/Ang):
----------------------------------------
   Tot   -0.063715   -0.464396   -0.053528
----------------------------------------
   Max    0.461089
   Res    0.157050    sqrt( Sum f_i^2 / 3N )
----------------------------------------
   Max    0.461089    constrained

Stress-tensor-Voigt (kbar):        0.03        0.03        0.11        0.10        0.05       -0.01
(Free)E + p*V (eV/cell)     -468.2709
Target enthalpy (eV/cell)     -468.2356

siesta: Stress tensor (static) (eV/Ang**3):
         0.000053    0.000000    0.000011
         0.000000    0.000122   -0.000000
         0.000011   -0.000000    0.000084

siesta: Pressure (static):         -0.13875250  kBar

siesta: Stress tensor (total) (eV/Ang**3):
         0.000019    0.000060   -0.000006
         0.000060    0.000019    0.000031
        -0.000006    0.000031    0.000067

siesta: Pressure (total):         -0.05651325  kBar

TDAP : Electric dipole (a.u.)  =    0.316942    0.008625   -0.419334
TDAP : Electric dipole (Debye) =    0.805586    0.021924   -1.065843
TDAP : Energy  :  -24.22 -12.51  -8.10  -6.17   2.04   4.25  10.67  12.36
TDAP : Partition :    2.00   2.00   2.00   2.00   0.00   0.00   0.00   0.00

siesta: Temp_ion =     300.000 K

* Maximum dynamic memory allocated =     4 MB

siesta:                 ==============================
                            Begin MD step =     15
                        ==============================

outcell: Unit cell vectors (Ang):
       10.000000    0.000000    0.000000
        0.000000   10.000000    0.000000
        0.000000    0.000000   10.000000

outcell: Cell vector modules (Ang)   :   10.000000   10.000000   10.000000
outcell: Cell angles (23,13,12) (deg):     90.0000     90.0000     90.0000
outcell: Cell volume (Ang**3)        :   1000.0000
New_DM. Step:    15
Re-using DM from previous geometry...
Extrapolating Density Matrix...

TDAP: Electric Field

TDAP: External EField    0.000000    0.000000    0.000000 Ry/Bohr/e

siesta: iscf   Eharris(eV)      E_KS(eV)   FreeEng(eV)   dDmax  Ef(eV)
siesta:    1     -468.2356     -468.2356     -468.2356  0.0000 -1.1150

siesta: E_KS(eV) =             -468.2356

siesta: Atomic forces (eV/Ang):
----------------------------------------
   Tot   -0.063708   -0.464400   -0.053527
----------------------------------------
   Max    0.461093
   Res    0.157051    sqrt( Sum f_i^2 / 3N )
----------------------------------------
   Max    0.461093    constrained

Stress-tensor-Voigt (kbar):        0.03        0.03        0.11        0.10        0.05       -0.01
(Free)E + p*V (eV/cell)     -468.2709
Target enthalpy (eV/cell)     -468.2356

siesta: Stress tensor (static) (eV/Ang**3):
         0.000053    0.000000    0.000011
         0.000000    0.000122   -0.000000
         0.000011   -0.000000    0.000084

siesta: Pressure (static):         -0.13876347  kBar

siesta: Stress tensor (total) (eV/Ang**3):
         0.000019    0.000060   -0.000006
         0.000060    0.000019    0.000031
        -0.000006    0.000031    0.000067

siesta: Pressure (total):         -0.05652422  kBar

TDAP : Electric dipole (a.u.)  =    0.316942    0.008625   -0.419334
TDAP : Electric dipole (Debye) =    0.805586    0.021924   -1.065843
TDAP : Energy  :  -24.22 -12.51  -8.10  -6.17   2.04   4.25  10.67  12.36
TDAP : Partition :    2.00   2.00   2.00   2.00   0.00   0.00   0.00   0.00

siesta: Temp_ion =     300.000 K

* Maximum dynamic memory allocated =     4 MB

siesta:                 ==============================
                            Begin MD step =     16
                        ==============================

outcell: Unit cell vectors (Ang):
       10.000000    0.000000    0.000000
        0.000000   10.000000    0.000000
        0.000000    0.000000   10.000000

outcell: Cell vector modules (Ang)   :   10.000000   10.000000   10.000000
outcell: Cell angles (23,13,12) (deg):     90.0000     90.0000     90.0000
outcell: Cell volume (Ang**3)        :   1000.0000
New_DM. Step:    16
Re-using DM from previous geometry...
Extrapolating Density Matrix...

TDAP: Electric Field

TDAP: External EField    0.000000    0.000000    0.000000 Ry/Bohr/e

siesta: iscf   Eharris(eV)      E_KS(eV)   FreeEng(eV)   dDmax  Ef(eV)
siesta:    1     -468.2356     -468.2356     -468.2356  0.0000 -1.1150

siesta: E_KS(eV) =             -468.2356

siesta: Atomic forces (eV/Ang):
----------------------------------------
   Tot   -0.063720   -0.464393   -0.053533
----------------------------------------
   Max    0.461086
   Res    0.157050    sqrt( Sum f_i^2 / 3N )
----------------------------------------
   Max    0.461086    constrained

Stress-tensor-Voigt (kbar):        0.03        0.03        0.11        0.10        0.05       -0.01
(Free)E + p*V (eV/cell)     -468.2709
Target enthalpy (eV/cell)     -468.2356

siesta: Stress tensor (static) (eV/Ang**3):
         0.000053    0.000000    0.000011
         0.000000    0.000122   -0.000000
         0.000011   -0.000000    0.000084

siesta: Pressure (static):         -0.13875264  kBar

siesta: Stress tensor (total) (eV/Ang**3):
         0.000019    0.000060   -0.000006
         0.000060    0.000019    0.000031
        -0.000006    0.000031    0.000067

siesta: Pressure (total):         -0.05651339  kBar

TDAP : Electric dipole (a.u.)  =    0.316942    0.008625   -0.419335
TDAP : Electric dipole (Debye) =    0.805586    0.021923   -1.065843
TDAP : Energy  :  -24.22 -12.51  -8.10  -6.17   2.04   4.25  10.67  12.36
TDAP : Partition :    2.00   2.00   2.00   2.00   0.00   0.00   0.00   0.00

siesta: Temp_ion =     300.000 K

* Maximum dynamic memory allocated =     4 MB

siesta:                 ==============================
                            Begin MD step =     17
                        ==============================

outcell: Unit cell vectors (Ang):
       10.000000    0.000000    0.000000
        0.000000   10.000000    0.000000
        0.000000    0.000000   10.000000

outcell: Cell vector modules (Ang)   :   10.000000   10.000000   10.000000
outcell: Cell angles (23,13,12) (deg):     90.0000     90.0000     90.0000
outcell: Cell volume (Ang**3)        :   1000.0000
New_DM. Step:    17
Re-using DM from previous geometry...
Extrapolating Density Matrix...

TDAP: Electric Field

TDAP: External EField    0.000000    0.000000    0.000000 Ry/Bohr/e

siesta: iscf   Eharris(eV)      E_KS(eV)   FreeEng(eV)   dDmax  Ef(eV)
siesta:    1     -468.2356     -468.2356     -468.2356  0.0000 -1.1150

siesta: E_KS(eV) =             -468.2356

siesta: Atomic forces (eV/Ang):
----------------------------------------
   Tot   -0.063719   -0.464384   -0.053526
----------------------------------------
   Max    0.461077
   Res    0.157047    sqrt( Sum f_i^2 / 3N )
----------------------------------------
   Max    0.461077    constrained

Stress-tensor-Voigt (kbar):        0.03        0.03        0.11        0.10        0.05       -0.01
(Free)E + p*V (eV/cell)     -468.2709
Target enthalpy (eV/cell)     -468.2356

siesta: Stress tensor (static) (eV/Ang**3):
         0.000053    0.000000    0.000011
         0.000000    0.000122   -0.000000
         0.000011   -0.000000    0.000084

siesta: Pressure (static):         -0.13874795  kBar

siesta: Stress tensor (total) (eV/Ang**3):
         0.000019    0.000060   -0.000006
         0.000060    0.000019    0.000031
        -0.000006    0.000031    0.000067

siesta: Pressure (total):         -0.05650870  kBar

TDAP : Electric dipole (a.u.)  =    0.316942    0.008625   -0.419335
TDAP : Electric dipole (Debye) =    0.805587    0.021923   -1.065844
TDAP : Energy  :  -24.22 -12.51  -8.10  -6.17   2.04   4.25  10.67  12.36
TDAP : Partition :    2.00   2.00   2.00   2.00   0.00   0.00   0.00   0.00

siesta: Temp_ion =     300.000 K

* Maximum dynamic memory allocated =     4 MB

siesta:                 ==============================
                            Begin MD step =     18
                        ==============================

outcell: Unit cell vectors (Ang):
       10.000000    0.000000    0.000000
        0.000000   10.000000    0.000000
        0.000000    0.000000   10.000000

outcell: Cell vector modules (Ang)   :   10.000000   10.000000   10.000000
outcell: Cell angles (23,13,12) (deg):     90.0000     90.0000     90.0000
outcell: Cell volume (Ang**3)        :   1000.0000
New_DM. Step:    18
Re-using DM from previous geometry...
Extrapolating Density Matrix...

TDAP: Electric Field

TDAP: External EField    0.000000    0.000000    0.000000 Ry/Bohr/e

siesta: iscf   Eharris(eV)      E_KS(eV)   FreeEng(eV)   dDmax  Ef(eV)
siesta:    1     -468.2356     -468.2356     -468.2356  0.0000 -1.1150

siesta: E_KS(eV) =             -468.2356

siesta: Atomic forces (eV/Ang):
----------------------------------------
   Tot   -0.063726   -0.464397   -0.053514
----------------------------------------
   Max    0.461091
   Res    0.157051    sqrt( Sum f_i^2 / 3N )
----------------------------------------
   Max    0.461091    constrained

Stress-tensor-Voigt (kbar):        0.03        0.03        0.11        0.10        0.05       -0.01
(Free)E + p*V (eV/cell)     -468.2709
Target enthalpy (eV/cell)     -468.2356

siesta: Stress tensor (static) (eV/Ang**3):
         0.000053    0.000000    0.000011
         0.000000    0.000122   -0.000000
         0.000011   -0.000000    0.000084

siesta: Pressure (static):         -0.13873951  kBar

siesta: Stress tensor (total) (eV/Ang**3):
         0.000019    0.000060   -0.000006
         0.000060    0.000019    0.000031
        -0.000006    0.000031    0.000067

siesta: Pressure (total):         -0.05650026  kBar

TDAP : Electric dipole (a.u.)  =    0.316942    0.008625   -0.419335
TDAP : Electric dipole (Debye) =    0.805586    0.021923   -1.065843
TDAP : Energy  :  -24.22 -12.51  -8.10  -6.17   2.04   4.25  10.67  12.36
TDAP : Partition :    2.00   2.00   2.00   2.00   0.00   0.00   0.00   0.00

siesta: Temp_ion =     300.000 K

* Maximum dynamic memory allocated =     4 MB

siesta:                 ==============================
                            Begin MD step =     19
                        ==============================

outcell: Unit cell vectors (Ang):
       10.000000    0.000000    0.000000
        0.000000   10.000000    0.000000
        0.000000    0.000000   10.000000

outcell: Cell vector modules (Ang)   :   10.000000   10.000000   10.000000
outcell: Cell angles (23,13,12) (deg):     90.0000     90.0000     90.0000
outcell: Cell volume (Ang**3)        :   1000.0000
New_DM. Step:    19
Re-using DM from previous geometry...
Extrapolating Density Matrix...

TDAP: Electric Field

TDAP: External EField    0.000000    0.000000    0.000000 Ry/Bohr/e

siesta: iscf   Eharris(eV)      E_KS(eV)   FreeEng(eV)   dDmax  Ef(eV)
siesta:    1     -468.2356     -468.2356     -468.2356  0.0000 -1.1150

siesta: E_KS(eV) =             -468.2356

siesta: Atomic forces (eV/Ang):
----------------------------------------
   Tot   -0.063706   -0.464401   -0.053515
----------------------------------------
   Max    0.461093
   Res    0.157051    sqrt( Sum f_i^2 / 3N )
----------------------------------------
   Max    0.461093    constrained

Stress-tensor-Voigt (kbar):        0.03        0.03        0.11        0.10        0.05       -0.01
(Free)E + p*V (eV/cell)     -468.2709
Target enthalpy (eV/cell)     -468.2356

siesta: Stress tensor (static) (eV/Ang**3):
         0.000053    0.000000    0.000011
         0.000000    0.000122   -0.000000
         0.000011   -0.000000    0.000084

siesta: Pressure (static):         -0.13874618  kBar

siesta: Stress tensor (total) (eV/Ang**3):
         0.000019    0.000060   -0.000006
         0.000060    0.000019    0.000031
        -0.000006    0.000031    0.000067

siesta: Pressure (total):         -0.05650693  kBar

TDAP : Electric dipole (a.u.)  =    0.316941    0.008625   -0.419334
TDAP : Electric dipole (Debye) =    0.805585    0.021924   -1.065842
TDAP : Energy  :  -24.22 -12.51  -8.10  -6.17   2.04   4.25  10.67  12.36
TDAP : Partition :    2.00   2.00   2.00   2.00   0.00   0.00   0.00   0.00

siesta: Temp_ion =     300.000 K

* Maximum dynamic memory allocated =     4 MB

siesta:                 ==============================
                            Begin MD step =     20
                        ==============================

outcell: Unit cell vectors (Ang):
       10.000000    0.000000    0.000000
        0.000000   10.000000    0.000000
        0.000000    0.000000   10.000000

outcell: Cell vector modules (Ang)   :   10.000000   10.000000   10.000000
outcell: Cell angles (23,13,12) (deg):     90.0000     90.0000     90.0000
outcell: Cell volume (Ang**3)        :   1000.0000
New_DM. Step:    20
Re-using DM from previous geometry...
Extrapolating Density Matrix...

TDAP: Electric Field

TDAP: External EField    0.000000    0.000000    0.000000 Ry/Bohr/e

siesta: iscf   Eharris(eV)      E_KS(eV)   FreeEng(eV)   dDmax  Ef(eV)
siesta:    1     -468.2356     -468.2356     -468.2356  0.0000 -1.1150

siesta: E_KS(eV) =             -468.2356

siesta: Atomic forces (eV/Ang):
----------------------------------------
   Tot   -0.063724   -0.464406   -0.053514
----------------------------------------
   Max    0.461099
   Res    0.157053    sqrt( Sum f_i^2 / 3N )
----------------------------------------
   Max    0.461099    constrained

Stress-tensor-Voigt (kbar):        0.03        0.03        0.11        0.10        0.05       -0.01
(Free)E + p*V (eV/cell)     -468.2709
Target enthalpy (eV/cell)     -468.2356

siesta: Stress tensor (static) (eV/Ang**3):
         0.000053    0.000000    0.000011
         0.000000    0.000122   -0.000000
         0.000011   -0.000000    0.000084

siesta: Pressure (static):         -0.13874843  kBar

siesta: Stress tensor (total) (eV/Ang**3):
         0.000019    0.000060   -0.000006
         0.000060    0.000019    0.000031
        -0.000006    0.000031    0.000067

siesta: Pressure (total):         -0.05650919  kBar

TDAP : Electric dipole (a.u.)  =    0.316941    0.008625   -0.419334
TDAP : Electric dipole (Debye) =    0.805585    0.021924   -1.065842
TDAP : Energy  :  -24.22 -12.51  -8.10  -6.17   2.04   4.25  10.67  12.36
TDAP : Partition :    2.00   2.00   2.00   2.00   0.00   0.00   0.00   0.00

siesta: Temp_ion =     300.000 K

* Maximum dynamic memory allocated =     4 MB

siesta:                 ==============================
                            Begin MD step =     21
                        ==============================

outcell: Unit cell vectors (Ang):
       10.000000    0.000000    0.000000
        0.000000   10.000000    0.000000
        0.000000    0.000000   10.000000

outcell: Cell vector modules (Ang)   :   10.000000   10.000000   10.000000
outcell: Cell angles (23,13,12) (deg):     90.0000     90.0000     90.0000
outcell: Cell volume (Ang**3)        :   1000.0000
New_DM. Step:    21
Re-using DM from previous geometry...
Extrapolating Density Matrix...

TDAP: Electric Field

TDAP: External EField    0.000000    0.000000    0.000000 Ry/Bohr/e

siesta: iscf   Eharris(eV)      E_KS(eV)   FreeEng(eV)   dDmax  Ef(eV)
siesta:    1     -468.2356     -468.2356     -468.2356  0.0000 -1.1150

siesta: E_KS(eV) =             -468.2356

siesta: Atomic forces (eV/Ang):
----------------------------------------
   Tot   -0.063718   -0.464388   -0.053529
----------------------------------------
   Max    0.461081
   Res    0.157048    sqrt( Sum f_i^2 / 3N )
----------------------------------------
   Max    0.461081    constrained

Stress-tensor-Voigt (kbar):        0.03        0.03        0.11        0.10        0.05       -0.01
(Free)E + p*V (eV/cell)     -468.2709
Target enthalpy (eV/cell)     -468.2356

siesta: Stress tensor (static) (eV/Ang**3):
         0.000053    0.000000    0.000011
         0.000000    0.000122   -0.000000
         0.000011   -0.000000    0.000084

siesta: Pressure (static):         -0.13873946  kBar

siesta: Stress tensor (total) (eV/Ang**3):
         0.000019    0.000060   -0.000006
         0.000060    0.000019    0.000031
        -0.000006    0.000031    0.000067

siesta: Pressure (total):         -0.05650021  kBar

TDAP : Electric dipole (a.u.)  =    0.316942    0.008625   -0.419334
TDAP : Electric dipole (Debye) =    0.805586    0.021923   -1.065842
TDAP : Energy  :  -24.22 -12.51  -8.10  -6.17   2.04   4.25  10.67  12.36
TDAP : Partition :    2.00   2.00   2.00   2.00   0.00   0.00   0.00   0.00

siesta: Temp_ion =     300.000 K

* Maximum dynamic memory allocated =     4 MB

siesta:                 ==============================
                            Begin MD step =     22
                        ==============================

outcell: Unit cell vectors (Ang):
       10.000000    0.000000    0.000000
        0.000000   10.000000    0.000000
        0.000000    0.000000   10.000000

outcell: Cell vector modules (Ang)   :   10.000000   10.000000   10.000000
outcell: Cell angles (23,13,12) (deg):     90.0000     90.0000     90.0000
outcell: Cell volume (Ang**3)        :   1000.0000
New_DM. Step:    22
Re-using DM from previous geometry...
Extrapolating Density Matrix...

TDAP: Electric Field

TDAP: External EField    0.000000    0.000000    0.000000 Ry/Bohr/e

siesta: iscf   Eharris(eV)      E_KS(eV)   FreeEng(eV)   dDmax  Ef(eV)
siesta:    1     -468.2356     -468.2356     -468.2356  0.0000 -1.1150

siesta: E_KS(eV) =             -468.2356

siesta: Atomic forces (eV/Ang):
----------------------------------------
   Tot   -0.063723   -0.464386   -0.053524
----------------------------------------
   Max    0.461079
   Res    0.157047    sqrt( Sum f_i^2 / 3N )
----------------------------------------
   Max    0.461079    constrained

Stress-tensor-Voigt (kbar):        0.03        0.03        0.11        0.10        0.05       -0.01
(Free)E + p*V (eV/cell)     -468.2709
Target enthalpy (eV/cell)     -468.2356

siesta: Stress tensor (static) (eV/Ang**3):
         0.000053    0.000000    0.000011
         0.000000    0.000122   -0.000000
         0.000011   -0.000000    0.000084

siesta: Pressure (static):         -0.13874628  kBar

siesta: Stress tensor (total) (eV/Ang**3):
         0.000019    0.000060   -0.000006
         0.000060    0.000019    0.000031
        -0.000006    0.000031    0.000067

siesta: Pressure (total):         -0.05650703  kBar

TDAP : Electric dipole (a.u.)  =    0.316942    0.008625   -0.419335
TDAP : Electric dipole (Debye) =    0.805587    0.021923   -1.065844
TDAP : Energy  :  -24.22 -12.51  -8.10  -6.17   2.04   4.25  10.67  12.36
TDAP : Partition :    2.00   2.00   2.00   2.00   0.00   0.00   0.00   0.00

siesta: Temp_ion =     300.000 K

* Maximum dynamic memory allocated =     4 MB

siesta:                 ==============================
                            Begin MD step =     23
                        ==============================

outcell: Unit cell vectors (Ang):
       10.000000    0.000000    0.000000
        0.000000   10.000000    0.000000
        0.000000    0.000000   10.000000

outcell: Cell vector modules (Ang)   :   10.000000   10.000000   10.000000
outcell: Cell angles (23,13,12) (deg):     90.0000     90.0000     90.0000
outcell: Cell volume (Ang**3)        :   1000.0000
New_DM. Step:    23
Re-using DM from previous geometry...
Extrapolating Density Matrix...

TDAP: Electric Field

TDAP: External EField    0.000000    0.000000    0.000000 Ry/Bohr/e

siesta: iscf   Eharris(eV)      E_KS(eV)   FreeEng(eV)   dDmax  Ef(eV)
siesta:    1     -468.2356     -468.2356     -468.2356  0.0000 -1.1150

siesta: E_KS(eV) =             -468.2356

siesta: Atomic forces (eV/Ang):
----------------------------------------
   Tot   -0.063720   -0.464399   -0.053533
----------------------------------------
   Max    0.461092
   Res    0.157052    sqrt( Sum f_i^2 / 3N )
----------------------------------------
   Max    0.461092    constrained

Stress-tensor-Voigt (kbar):        0.03        0.03        0.11        0.10        0.05       -0.01
(Free)E + p*V (eV/cell)     -468.2709
Target enthalpy (eV/cell)     -468.2356

siesta: Stress tensor (static) (eV/Ang**3):
         0.000053    0.000000    0.000011
         0.000000    0.000122   -0.000000
         0.000011   -0.000000    0.000084

siesta: Pressure (static):         -0.13875132  kBar

siesta: Stress tensor (total) (eV/Ang**3):
         0.000019    0.000060   -0.000006
         0.000060    0.000019    0.000031
        -0.000006    0.000031    0.000067

siesta: Pressure (total):         -0.05651207  kBar

TDAP : Electric dipole (a.u.)  =    0.316942    0.008625   -0.419336
TDAP : Electric dipole (Debye) =    0.805588    0.021923   -1.065845
TDAP : Energy  :  -24.22 -12.51  -8.10  -6.17   2.04   4.25  10.67  12.36
TDAP : Partition :    2.00   2.00   2.00   2.00   0.00   0.00   0.00   0.00

siesta: Temp_ion =     300.000 K

* Maximum dynamic memory allocated =     4 MB

siesta:                 ==============================
                            Begin MD step =     24
                        ==============================

outcell: Unit cell vectors (Ang):
       10.000000    0.000000    0.000000
        0.000000   10.000000    0.000000
        0.000000    0.000000   10.000000

outcell: Cell vector modules (Ang)   :   10.000000   10.000000   10.000000
outcell: Cell angles (23,13,12) (deg):     90.0000     90.0000     90.0000
outcell: Cell volume (Ang**3)        :   1000.0000
New_DM. Step:    24
Re-using DM from previous geometry...
Extrapolating Density Matrix...

TDAP: Electric Field

TDAP: External EField    0.000000    0.000000    0.000000 Ry/Bohr/e

siesta: iscf   Eharris(eV)      E_KS(eV)   FreeEng(eV)   dDmax  Ef(eV)
siesta:    1     -468.2356     -468.2356     -468.2356  0.0000 -1.1150

siesta: E_KS(eV) =             -468.2356

siesta: Atomic forces (eV/Ang):
----------------------------------------
   Tot   -0.063696   -0.464388   -0.053527
----------------------------------------
   Max    0.461081
   Res    0.157046    sqrt( Sum f_i^2 / 3N )
----------------------------------------
   Max    0.461081    constrained

Stress-tensor-Voigt (kbar):        0.03        0.03        0.11        0.10        0.05       -0.01
(Free)E + p*V (eV/cell)     -468.2709
Target enthalpy (eV/cell)     -468.2356

siesta: Stress tensor (static) (eV/Ang**3):
         0.000053    0.000000    0.000011
         0.000000    0.000122   -0.000000
         0.000011   -0.000000    0.000084

siesta: Pressure (static):         -0.13876285  kBar

siesta: Stress tensor (total) (eV/Ang**3):
         0.000019    0.000060   -0.000006
         0.000060    0.000019    0.000031
        -0.000006    0.000031    0.000067

siesta: Pressure (total):         -0.05652360  kBar

TDAP : Electric dipole (a.u.)  =    0.316942    0.008625   -0.419336
TDAP : Electric dipole (Debye) =    0.805588    0.021923   -1.065846
TDAP : Energy  :  -24.22 -12.51  -8.10  -6.17   2.04   4.25  10.67  12.36
TDAP : Partition :    2.00   2.00   2.00   2.00   0.00   0.00   0.00   0.00

siesta: Temp_ion =     300.000 K

* Maximum dynamic memory allocated =     4 MB

siesta:                 ==============================
                            Begin MD step =     25
                        ==============================

outcell: Unit cell vectors (Ang):
       10.000000    0.000000    0.000000
        0.000000   10.000000    0.000000
        0.000000    0.000000   10.000000

outcell: Cell vector modules (Ang)   :   10.000000   10.000000   10.000000
outcell: Cell angles (23,13,12) (deg):     90.0000     90.0000     90.0000
outcell: Cell volume (Ang**3)        :   1000.0000
New_DM. Step:    25
Re-using DM from previous geometry...
Extrapolating Density Matrix...

TDAP: Electric Field

TDAP: External EField    0.000000    0.000000    0.000000 Ry/Bohr/e

siesta: iscf   Eharris(eV)      E_KS(eV)   FreeEng(eV)   dDmax  Ef(eV)
siesta:    1     -468.2356     -468.2356     -468.2356  0.0000 -1.1150

siesta: E_KS(eV) =             -468.2356

siesta: Atomic forces (eV/Ang):
----------------------------------------
   Tot   -0.063711   -0.464396   -0.053537
----------------------------------------
   Max    0.461088
   Res    0.157050    sqrt( Sum f_i^2 / 3N )
----------------------------------------
   Max    0.461088    constrained

Stress-tensor-Voigt (kbar):        0.03        0.03        0.11        0.10        0.05       -0.01
(Free)E + p*V (eV/cell)     -468.2709
Target enthalpy (eV/cell)     -468.2356

siesta: Stress tensor (static) (eV/Ang**3):
         0.000053    0.000000    0.000011
         0.000000    0.000122   -0.000000
         0.000011   -0.000000    0.000084

siesta: Pressure (static):         -0.13875480  kBar

siesta: Stress tensor (total) (eV/Ang**3):
         0.000019    0.000060   -0.000006
         0.000060    0.000019    0.000031
        -0.000006    0.000031    0.000067

siesta: Pressure (total):         -0.05651555  kBar

TDAP : Electric dipole (a.u.)  =    0.316942    0.008625   -0.419335
TDAP : Electric dipole (Debye) =    0.805588    0.021924   -1.065845
TDAP : Energy  :  -24.22 -12.51  -8.10  -6.17   2.04   4.25  10.67  12.36
TDAP : Partition :    2.00   2.00   2.00   2.00   0.00   0.00   0.00   0.00

siesta: Temp_ion =     300.000 K

* Maximum dynamic memory allocated =     4 MB

siesta:                 ==============================
                            Begin MD step =     26
                        ==============================

outcell: Unit cell vectors (Ang):
       10.000000    0.000000    0.000000
        0.000000   10.000000    0.000000
        0.000000    0.000000   10.000000

outcell: Cell vector modules (Ang)   :   10.000000   10.000000   10.000000
outcell: Cell angles (23,13,12) (deg):     90.0000     90.0000     90.0000
outcell: Cell volume (Ang**3)        :   1000.0000
New_DM. Step:    26
Re-using DM from previous geometry...
Extrapolating Density Matrix...

TDAP: Electric Field

TDAP: External EField    0.000000    0.000000    0.000000 Ry/Bohr/e

siesta: iscf   Eharris(eV)      E_KS(eV)   FreeEng(eV)   dDmax  Ef(eV)
siesta:    1     -468.2356     -468.2356     -468.2356  0.0000 -1.1150

siesta: E_KS(eV) =             -468.2356

siesta: Atomic forces (eV/Ang):
----------------------------------------
   Tot   -0.063728   -0.464402   -0.053519
----------------------------------------
   Max    0.461094
   Res    0.157052    sqrt( Sum f_i^2 / 3N )
----------------------------------------
   Max    0.461094    constrained

Stress-tensor-Voigt (kbar):        0.03        0.03        0.11        0.10        0.05       -0.01
(Free)E + p*V (eV/cell)     -468.2709
Target enthalpy (eV/cell)     -468.2356

siesta: Stress tensor (static) (eV/Ang**3):
         0.000053    0.000000    0.000011
         0.000000    0.000122   -0.000000
         0.000011   -0.000000    0.000084

siesta: Pressure (static):         -0.13875195  kBar

siesta: Stress tensor (total) (eV/Ang**3):
         0.000019    0.000060   -0.000006
         0.000060    0.000019    0.000031
        -0.000006    0.000031    0.000067

siesta: Pressure (total):         -0.05651271  kBar

TDAP : Electric dipole (a.u.)  =    0.316942    0.008625   -0.419335
TDAP : Electric dipole (Debye) =    0.805587    0.021924   -1.065844
TDAP : Energy  :  -24.22 -12.51  -8.10  -6.17   2.04   4.25  10.67  12.36
TDAP : Partition :    2.00   2.00   2.00   2.00   0.00   0.00   0.00   0.00

siesta: Temp_ion =     300.000 K

* Maximum dynamic memory allocated =     4 MB

siesta:                 ==============================
                            Begin MD step =     27
                        ==============================

outcell: Unit cell vectors (Ang):
       10.000000    0.000000    0.000000
[...]

Stress-tensor-Voigt (kbar):        0.03        0.03        0.11        0.10        0.05       -0.01
(Free)E + p*V (eV/cell)     -468.2709
Target enthalpy (eV/cell)     -468.2356

siesta: Stress tensor (static) (eV/Ang**3):
         0.000053    0.000000    0.000011
         0.000000    0.000122   -0.000000
         0.000011   -0.000000    0.000084

siesta: Pressure (static):         -0.13875462  kBar

siesta: Stress tensor (total) (eV/Ang**3):
         0.000019    0.000060   -0.000006
         0.000060    0.000019    0.000031
        -0.000006    0.000031    0.000067

siesta: Pressure (total):         -0.05651537  kBar

TDAP : Electric dipole (a.u.)  =    0.316943    0.008625   -0.419335
TDAP : Electric dipole (Debye) =    0.805588    0.021923   -1.065843
TDAP : Energy  :  -24.22 -12.51  -8.10  -6.17   2.04   4.25  10.67  12.36
TDAP : Partition :    2.00   2.00   2.00   2.00   0.00   0.00   0.00   0.00

siesta: Temp_ion =     300.000 K

* Maximum dynamic memory allocated =     4 MB

siesta:                 ==============================
                            Begin MD step =    496
                        ==============================

outcell: Unit cell vectors (Ang):
       10.000000    0.000000    0.000000
        0.000000   10.000000    0.000000
        0.000000    0.000000   10.000000

outcell: Cell vector modules (Ang)   :   10.000000   10.000000   10.000000
outcell: Cell angles (23,13,12) (deg):     90.0000     90.0000     90.0000
outcell: Cell volume (Ang**3)        :   1000.0000
New_DM. Step:   496
Re-using DM from previous geometry...
Extrapolating Density Matrix...

TDAP: Electric Field

TDAP: External EField   -0.000000   -0.000000   -0.000000 Ry/Bohr/e

siesta: iscf   Eharris(eV)      E_KS(eV)   FreeEng(eV)   dDmax  Ef(eV)
siesta:    1     -468.2356     -468.2356     -468.2356  0.0000 -1.1150

siesta: E_KS(eV) =             -468.2356

siesta: Atomic forces (eV/Ang):
----------------------------------------
   Tot   -0.063723   -0.464408   -0.053534
----------------------------------------
   Max    0.461100
   Res    0.157055    sqrt( Sum f_i^2 / 3N )
----------------------------------------
   Max    0.461100    constrained

Stress-tensor-Voigt (kbar):        0.03        0.03        0.11        0.10        0.05       -0.01
(Free)E + p*V (eV/cell)     -468.2709
Target enthalpy (eV/cell)     -468.2356

siesta: Stress tensor (static) (eV/Ang**3):
         0.000053    0.000000    0.000011
         0.000000    0.000122   -0.000000
         0.000011   -0.000000    0.000084

siesta: Pressure (static):         -0.13873186  kBar

siesta: Stress tensor (total) (eV/Ang**3):
         0.000019    0.000060   -0.000006
         0.000060    0.000019    0.000031
        -0.000006    0.000031    0.000067

siesta: Pressure (total):         -0.05649261  kBar

TDAP : Electric dipole (a.u.)  =    0.316942    0.008625   -0.419335
TDAP : Electric dipole (Debye) =    0.805586    0.021923   -1.065843
TDAP : Energy  :  -24.22 -12.51  -8.10  -6.17   2.04   4.25  10.67  12.36
TDAP : Partition :    2.00   2.00   2.00   2.00   0.00   0.00   0.00   0.00

siesta: Temp_ion =     300.000 K

* Maximum dynamic memory allocated =     4 MB

siesta:                 ==============================
                            Begin MD step =    497
                        ==============================

outcell: Unit cell vectors (Ang):
       10.000000    0.000000    0.000000
        0.000000   10.000000    0.000000
        0.000000    0.000000   10.000000

outcell: Cell vector modules (Ang)   :   10.000000   10.000000   10.000000
outcell: Cell angles (23,13,12) (deg):     90.0000     90.0000     90.0000
outcell: Cell volume (Ang**3)        :   1000.0000
New_DM. Step:   497
Re-using DM from previous geometry...
Extrapolating Density Matrix...

TDAP: Electric Field

TDAP: External EField   -0.000000   -0.000000   -0.000000 Ry/Bohr/e

siesta: iscf   Eharris(eV)      E_KS(eV)   FreeEng(eV)   dDmax  Ef(eV)
siesta:    1     -468.2356     -468.2356     -468.2356  0.0000 -1.1150

siesta: E_KS(eV) =             -468.2356

siesta: Atomic forces (eV/Ang):
----------------------------------------
   Tot   -0.063709   -0.464392   -0.053536
----------------------------------------
   Max    0.461081
   Res    0.157048    sqrt( Sum f_i^2 / 3N )
----------------------------------------
   Max    0.461081    constrained

Stress-tensor-Voigt (kbar):        0.03        0.03        0.11        0.10        0.05       -0.01
(Free)E + p*V (eV/cell)     -468.2709
Target enthalpy (eV/cell)     -468.2356

siesta: Stress tensor (static) (eV/Ang**3):
         0.000053    0.000000    0.000011
         0.000000    0.000122   -0.000000
         0.000011   -0.000000    0.000084

siesta: Pressure (static):         -0.13875936  kBar

siesta: Stress tensor (total) (eV/Ang**3):
         0.000019    0.000060   -0.000006
         0.000060    0.000019    0.000031
        -0.000006    0.000031    0.000067

siesta: Pressure (total):         -0.05652011  kBar

TDAP : Electric dipole (a.u.)  =    0.316942    0.008625   -0.419335
TDAP : Electric dipole (Debye) =    0.805586    0.021924   -1.065845
TDAP : Energy  :  -24.22 -12.51  -8.10  -6.17   2.04   4.25  10.67  12.36
TDAP : Partition :    2.00   2.00   2.00   2.00   0.00   0.00   0.00   0.00

siesta: Temp_ion =     300.000 K

* Maximum dynamic memory allocated =     4 MB

siesta:                 ==============================
                            Begin MD step =    498
                        ==============================

outcell: Unit cell vectors (Ang):
       10.000000    0.000000    0.000000
        0.000000   10.000000    0.000000
        0.000000    0.000000   10.000000

outcell: Cell vector modules (Ang)   :   10.000000   10.000000   10.000000
outcell: Cell angles (23,13,12) (deg):     90.0000     90.0000     90.0000
outcell: Cell volume (Ang**3)        :   1000.0000
New_DM. Step:   498
Re-using DM from previous geometry...
Extrapolating Density Matrix...

TDAP: Electric Field

TDAP: External EField   -0.000000   -0.000000   -0.000000 Ry/Bohr/e

siesta: iscf   Eharris(eV)      E_KS(eV)   FreeEng(eV)   dDmax  Ef(eV)
siesta:    1     -468.2356     -468.2356     -468.2356  0.0000 -1.1150

siesta: E_KS(eV) =             -468.2356

siesta: Atomic forces (eV/Ang):
----------------------------------------
   Tot   -0.063695   -0.464386   -0.053526
----------------------------------------
   Max    0.461075
   Res    0.157044    sqrt( Sum f_i^2 / 3N )
----------------------------------------
   Max    0.461075    constrained

Stress-tensor-Voigt (kbar):        0.03        0.03        0.11        0.10        0.05       -0.01
(Free)E + p*V (eV/cell)     -468.2709
Target enthalpy (eV/cell)     -468.2356

siesta: Stress tensor (static) (eV/Ang**3):
         0.000053    0.000000    0.000011
         0.000000    0.000122   -0.000000
         0.000011   -0.000000    0.000084

siesta: Pressure (static):         -0.13874802  kBar

siesta: Stress tensor (total) (eV/Ang**3):
         0.000019    0.000060   -0.000006
         0.000060    0.000019    0.000031
        -0.000006    0.000031    0.000067

siesta: Pressure (total):         -0.05650877  kBar

TDAP : Electric dipole (a.u.)  =    0.316943    0.008626   -0.419336
TDAP : Electric dipole (Debye) =    0.805589    0.021924   -1.065846
TDAP : Energy  :  -24.22 -12.51  -8.10  -6.17   2.04   4.25  10.67  12.36
TDAP : Partition :    2.00   2.00   2.00   2.00   0.00   0.00   0.00   0.00

siesta: Temp_ion =     300.000 K

* Maximum dynamic memory allocated =     4 MB

siesta:                 ==============================
                            Begin MD step =    499
                        ==============================

outcell: Unit cell vectors (Ang):
       10.000000    0.000000    0.000000
        0.000000   10.000000    0.000000
        0.000000    0.000000   10.000000

outcell: Cell vector modules (Ang)   :   10.000000   10.000000   10.000000
outcell: Cell angles (23,13,12) (deg):     90.0000     90.0000     90.0000
outcell: Cell volume (Ang**3)        :   1000.0000
New_DM. Step:   499
Re-using DM from previous geometry...
Extrapolating Density Matrix...

TDAP: Electric Field

TDAP: External EField   -0.000000   -0.000000   -0.000000 Ry/Bohr/e

siesta: iscf   Eharris(eV)      E_KS(eV)   FreeEng(eV)   dDmax  Ef(eV)
siesta:    1     -468.2356     -468.2356     -468.2356  0.0000 -1.1150

siesta: E_KS(eV) =             -468.2356

siesta: Atomic forces (eV/Ang):
----------------------------------------
   Tot   -0.063697   -0.464391   -0.053529
----------------------------------------
   Max    0.461082
   Res    0.157046    sqrt( Sum f_i^2 / 3N )
----------------------------------------
   Max    0.461082    constrained

Stress-tensor-Voigt (kbar):        0.03        0.03        0.11        0.10        0.05       -0.01
(Free)E + p*V (eV/cell)     -468.2709
Target enthalpy (eV/cell)     -468.2356

siesta: Stress tensor (static) (eV/Ang**3):
         0.000053    0.000000    0.000011
         0.000000    0.000122   -0.000000
         0.000011   -0.000000    0.000084

siesta: Pressure (static):         -0.13875285  kBar

siesta: Stress tensor (total) (eV/Ang**3):
         0.000019    0.000060   -0.000006
         0.000060    0.000019    0.000031
        -0.000006    0.000031    0.000067

siesta: Pressure (total):         -0.05651360  kBar

TDAP : Electric dipole (a.u.)  =    0.316943    0.008626   -0.419335
TDAP : Electric dipole (Debye) =    0.805589    0.021924   -1.065845
TDAP : Energy  :  -24.22 -12.51  -8.10  -6.17   2.04   4.25  10.67  12.36
TDAP : Partition :    2.00   2.00   2.00   2.00   0.00   0.00   0.00   0.00

siesta: Temp_ion =     300.000 K

* Maximum dynamic memory allocated =     4 MB

siesta:                 ==============================
                            Begin MD step =    500
                        ==============================

outcell: Unit cell vectors (Ang):
       10.000000    0.000000    0.000000
        0.000000   10.000000    0.000000
        0.000000    0.000000   10.000000

outcell: Cell vector modules (Ang)   :   10.000000   10.000000   10.000000
outcell: Cell angles (23,13,12) (deg):     90.0000     90.0000     90.0000
outcell: Cell volume (Ang**3)        :   1000.0000
New_DM. Step:   500
Re-using DM from previous geometry...
Extrapolating Density Matrix...

TDAP: Electric Field

TDAP: External EField   -0.000000   -0.000000   -0.000000 Ry/Bohr/e

siesta: iscf   Eharris(eV)      E_KS(eV)   FreeEng(eV)   dDmax  Ef(eV)
siesta:    1     -468.2356     -468.2356     -468.2356  0.0000 -1.1150

siesta: E_KS(eV) =             -468.2356

siesta: Atomic forces (eV/Ang):
----------------------------------------
   Tot   -0.063727   -0.464406   -0.053548
----------------------------------------
   Max    0.461101
   Res    0.157056    sqrt( Sum f_i^2 / 3N )
----------------------------------------
   Max    0.461101    constrained

Stress-tensor-Voigt (kbar):        0.03        0.03        0.11        0.10        0.05       -0.01
(Free)E + p*V (eV/cell)     -468.2709
Target enthalpy (eV/cell)     -468.2356

siesta: Stress tensor (static) (eV/Ang**3):
         0.000053    0.000000    0.000011
         0.000000    0.000122   -0.000000
         0.000011   -0.000000    0.000084

siesta: Pressure (static):         -0.13874121  kBar

siesta: Stress tensor (total) (eV/Ang**3):
         0.000019    0.000060   -0.000006
         0.000060    0.000019    0.000031
        -0.000006    0.000031    0.000067

siesta: Pressure (total):         -0.05650196  kBar
Writing WFSX for COOP/COHP in siesta.TDWFSX

TDAP : Electric dipole (a.u.)  =    0.316942    0.008625   -0.419335
TDAP : Electric dipole (Debye) =    0.805586    0.021923   -1.065843
TDAP : Energy  :  -24.22 -12.51  -8.10  -6.17   2.04   4.25  10.67  12.36
TDAP : Partition :    2.00   2.00   2.00   2.00   0.00   0.00   0.00   0.00

siesta: Temp_ion =     300.000 K

* Maximum dynamic memory allocated =     4 MB

siesta: Program's energy decomposition (eV):
siesta: Ebs     =      -101.985916
siesta: Eions   =       815.854478
siesta: Ena     =       170.060777
siesta: Ekin    =       357.162757
siesta: Enl     =       -63.829450
siesta: DEna    =        -0.147870
siesta: DUscf   =         0.703298
siesta: DUext   =         0.000000
siesta: Exc     =      -116.330645
siesta: eta*DQ  =         0.000000
siesta: Emadel  =         0.000000
siesta: Emeta   =         0.000000
siesta: Emolmec =         0.000000
siesta: Ekinion =         0.077553
siesta: Eharris =      -468.158059
siesta: Etot    =      -468.158058
siesta: FreeEng =      -468.158058

siesta: Final energy (eV):
siesta:  Band Struct. =    -101.985916
siesta:       Kinetic =     357.162757
siesta:       Hartree =     460.295578
siesta:    Ext. field =       0.000000
siesta:   Exch.-corr. =    -116.330645
siesta:  Ion-electron =   -1228.798593
siesta:       Ion-ion =      59.435292
siesta:       Ekinion =       0.077553
siesta:         Total =    -468.158058

siesta: Atomic forces (eV/Ang):
siesta:      1    0.008749   -0.001720   -0.004817
siesta:      2    0.013613   -0.001586   -0.008624
siesta:      3   -0.086088   -0.461101   -0.040107
siesta: ----------------------------------------
siesta:    Tot   -0.063727   -0.464406   -0.053548

siesta: Stress tensor (static) (eV/Ang**3):
siesta:     0.000053    0.000000    0.000011
siesta:     0.000000    0.000122   -0.000000
siesta:     0.000011   -0.000000    0.000084

siesta: Cell volume =       1000.000000 Ang**3

siesta: Pressure (static):
siesta:                Solid            Molecule  Units
siesta:          -0.00000094         -0.00000100  Ry/Bohr**3
siesta:          -0.00008659         -0.00009207  eV/Ang**3
siesta:          -0.13874121         -0.14751668  kBar
(Free)E+ p_basis*V_orbitals  =        -467.690287
(Free)Eharris+ p_basis*V_orbitals  =        -467.690287

siesta: Electric dipole (a.u.)  =    0.316942    0.008625   -0.419335
siesta: Electric dipole (Debye) =    0.805586    0.021923   -1.065843

* Maximum dynamic memory allocated : Node    0 =     4 MB
* Maximum dynamic memory allocated : Node    1 =     4 MB
* Maximum dynamic memory allocated : Node    2 =     4 MB
* Maximum dynamic memory allocated : Node    3 =     4 MB
* Maximum dynamic memory allocated : Node    4 =     4 MB
* Maximum dynamic memory allocated : Node    5 =     4 MB
* Maximum dynamic memory allocated : Node    6 =     4 MB
* Maximum dynamic memory allocated : Node    7 =     4 MB
* Maximum dynamic memory allocated : Node    8 =     4 MB
* Maximum dynamic memory allocated : Node    9 =     4 MB

* Maximum memory occured during ranger                        

timer: CPU execution times:
timer:  Routine       Calls   Time/call    Tot.time        %
timer:  siesta            1     387.928     387.928   100.00
timer:  Setup             1       1.302       1.302     0.34
timer:  bands             1       0.001       0.001     0.00
timer:  writewave         1       0.003       0.003     0.00
timer:  KSV_init          1       0.001       0.001     0.00
timer:  IterMD          500       0.773     386.595    99.66
timer:  hsparse         500       0.000       0.098     0.03
timer:  overlap         500       0.001       0.473     0.12
timer:  IterSCF         522       0.312     162.639    41.92
timer:  kinefsm        1000       0.000       0.457     0.12
timer:  nlefsm         1000       0.012      11.936     3.08
timer:  DHSCF          1022       0.297     303.795    78.31
timer:  DHSCF1            1       0.119       0.119     0.03
timer:  DHSCF2            1       0.166       0.166     0.04
timer:  REORD          8178       0.000       3.352     0.86
timer:  POISON         1023       0.038      39.103    10.08
timer:  DHSCF3         1022       0.271     277.308    71.48
timer:  rhoofd         1022       0.008       8.117     2.09
timer:  cellXC         1022       0.171     175.057    45.13
timer:  vmat           1022       0.019      19.073     4.92
timer:  MolMec         1000       0.000       0.021     0.01
timer:  diagon           23       0.039       0.895     0.23
timer:  r-eigvec         23       0.039       0.887     0.23
timer:  r-buildHS       522       0.000       0.000     0.00
timer:  rdiag            23       0.039       0.886     0.23
timer:  rdiag1           23       0.004       0.085     0.02
timer:  rdiag2           23       0.014       0.311     0.08
timer:  rdiag3           23       0.020       0.455     0.12
timer:  rdiag4           23       0.001       0.019     0.00
timer:  r-buildD        522       0.000       0.005     0.00
timer:  DHSCF4          500       0.052      25.843     6.66
timer:  dfscf           500       0.046      23.231     5.99
timer:  overfsm         500       0.001       0.257     0.07
timer:  evolve          499       0.018       8.786     2.26
timer:  r-evolgg        499       0.000       0.000     0.00
timer:  zevolg.1        499       0.007       3.511     0.91
timer:  zevolg.2        499       0.000       0.248     0.06
timer:  zevolg.3        499       0.000       0.007     0.00
timer:  zevolg.4        499       0.006       3.190     0.82
timer:  zevolg.5        499       0.000       0.234     0.06
timer:  zevolg.6        499       0.000       0.014     0.00
timer:  optical           1       0.020       0.020     0.01
  

elaps: ELAPSED times:
elaps:  Routine       Calls   Time/call    Tot.time        %
elaps:  siesta            1      38.795      38.795   100.00
elaps:  Setup             1       0.130       0.130     0.34
elaps:  bands             1       0.000       0.000     0.00
elaps:  writewave         1       0.001       0.001     0.00
elaps:  KSV_init          1       0.000       0.000     0.00
elaps:  IterMD          500       0.077      38.663    99.66
elaps:  hsparse         500       0.000       0.009     0.02
elaps:  overlap         500       0.000       0.054     0.14
elaps:  IterSCF         522       0.031      16.316    42.06
elaps:  kinefsm        1000       0.000       0.045     0.12
elaps:  nlefsm         1000       0.001       1.200     3.09
elaps:  DHSCF          1022       0.028      28.874    74.43
elaps:  DHSCF1            1       0.013       0.013     0.03
elaps:  DHSCF2            1       0.016       0.016     0.04
elaps:  REORD          8178       0.000       0.379     0.98
elaps:  POISON         1023       0.004       3.917    10.10
elaps:  DHSCF3         1022       0.027      27.735    71.49
elaps:  rhoofd         1022       0.000       0.108     0.28
elaps:  cellXC         1022       0.017      17.500    45.11
elaps:  vmat           1022       0.002       1.876     4.84
elaps:  MolMec         1000       0.000       0.008     0.02
elaps:  diagon           23       0.004       0.091     0.23
elaps:  r-eigvec         23       0.004       0.088     0.23
elaps:  r-buildHS       522       0.000       0.000     0.00
elaps:  rdiag            23       0.004       0.088     0.23
elaps:  rdiag1           23       0.000       0.009     0.02
elaps:  rdiag2           23       0.001       0.030     0.08
elaps:  rdiag3           23       0.002       0.046     0.12
elaps:  rdiag4           23       0.000       0.002     0.01
elaps:  r-buildD        522       0.000       0.002     0.01
elaps:  DHSCF4          500       0.002       1.074     2.77
elaps:  dfscf           500       0.002       1.038     2.68
elaps:  overfsm         500       0.000       0.021     0.05
elaps:  evolve          499       0.002       0.882     2.27
elaps:  r-evolgg        499       0.000       0.000     0.00
elaps:  zevolg.1        499       0.001       0.337     0.87
elaps:  zevolg.2        499       0.000       0.027     0.07
elaps:  zevolg.3        499       0.000       0.001     0.00
elaps:  zevolg.4        499       0.001       0.324     0.84
elaps:  zevolg.5        499       0.000       0.017     0.04
elaps:  zevolg.6        499       0.000       0.002     0.01
elaps:  optical           1       0.000       0.000     0.00
  
>> End of run:   2-DEC-2020  20:38:09
