Siesta Version:                                        tdap-2.2.3, based on siesta-3.2-pl-5
Architecture  : x86_64-unknown-linux-gnu--unknown
Compiler flags: mpif90 -g -O2 -ffree-line-length-none
PARALLEL version

* Running on   10 nodes in parallel
>> Start of run:   2-DEC-2020  22:20:23

                           ***********************       
                           *  WELCOME TO SIESTA  *       
                           ***********************       

reinit: Reading from standard input
************************** Dump of input data file ****************************
#DFT
XC.functional GGA
XC.authors  PBE
SCFMustConverge T
#MD
SolutionMethod      evolve
MD.TypeOfRun        verlet
MD.FinalTimeStep    1500
TD.FinalTimeStep    1500
MD.LengthTimeStep     0.00 fs
TD.LengthTimeStep   0.01 fs
MD.InitialTemperature  300 k
%block kgrid_Monkhorst_Pack
1 0 0 0.0
0 1 0 0.0
0 0 1 0.0
%endblock kgrid_Monkhorst_Pack
AtomicCoordinatesFormat  Fractional
LatticeConstant  1.0  Ang
NumberOfAtoms    3
NumberOfSpecies  2
%block LatticeVectors
       10.0        0.0000000000         0.0000000000
       0.0         10.0                 0.0000000000
       0.00        0.00                 10.0
%endblock LatticeVectors
%block ChemicalSpeciesLabel
   1    1    H
   2    8    O
%endblock ChemicalSpeciesLabel
%block AtomicCoordinatesAndAtomicSpecies
    0.44820475    0.41355314    0.41547532   1       1  H
    0.57091037    0.41168595    0.50808773   1       2  H
    0.47461484    0.41168595    0.50808773   2       3  O
%endblock AtomicCoordinatesAndAtomicSpecies
TD.DeltaElectricField T
%block ExternalElectricField #E0
0 0.002 0  Ry/Bohr/e
%endblock ExternalElectricField
************************** End of input data file *****************************

reinit: -----------------------------------------------------------------------
reinit: System Name: 
reinit: -----------------------------------------------------------------------
reinit: System Label: siesta                                                      
reinit: -----------------------------------------------------------------------

initatom: Reading input for the pseudopotentials and atomic orbitals ----------
 Species number:            1  Label: H Atomic number:           1
 Species number:            2  Label: O Atomic number:           8
Ground state valence configuration:   1s01
Reading pseudopotential information in formatted form from H.psf

Valence configuration for pseudopotential generation:
1s( 1.00) rc: 1.25
2p( 0.00) rc: 1.25
3d( 0.00) rc: 1.25
4f( 0.00) rc: 1.25
Ground state valence configuration:   2s02  2p04
Reading pseudopotential information in formatted form from O.psf

Valence configuration for pseudopotential generation:
2s( 2.00) rc: 1.14
2p( 4.00) rc: 1.14
3d( 0.00) rc: 1.14
4f( 0.00) rc: 1.14
For H, standard SIESTA heuristics set lmxkb to 2
 (one more than the basis l, including polarization orbitals).
Use PS.lmax or PS.KBprojectors blocks to override.
For O, standard SIESTA heuristics set lmxkb to 3
 (one more than the basis l, including polarization orbitals).
Use PS.lmax or PS.KBprojectors blocks to override.

<basis_specs>
===============================================================================
H                    Z=   1    Mass=  1.0100        Charge= 0.17977+309
Lmxo=0 Lmxkb= 2    BasisType=split      Semic=F
L=0  Nsemic=0  Cnfigmx=1
          n=1  nzeta=2  polorb=1
            splnorm:   0.15000    
               vcte:    0.0000    
               rinn:    0.0000    
                rcs:    0.0000      0.0000    
            lambdas:    1.0000      1.0000    
-------------------------------------------------------------------------------
L=0  Nkbl=1  erefs: 0.17977+309
L=1  Nkbl=1  erefs: 0.17977+309
L=2  Nkbl=1  erefs: 0.17977+309
===============================================================================
</basis_specs>

atom: Called for H                     (Z =   1)

read_vps: Pseudopotential generation method:
read_vps: ATM3      Troullier-Martins                       
Total valence charge:    1.00000

xc_check: Exchange-correlation functional:
xc_check: GGA Perdew, Burke & Ernzerhof 1996
xc_check: WARNING: Pseudopotential generated with Ceperley-Alder functional
V l=0 = -2*Zval/r beyond r=  1.2343
V l=1 = -2*Zval/r beyond r=  1.2189
V l=2 = -2*Zval/r beyond r=  1.2189
All V_l potentials equal beyond r=  1.2343
This should be close to max(r_c) in ps generation
All pots = -2*Zval/r beyond r=  1.2343

VLOCAL1: 99.0% of the norm of Vloc inside     28.493 Ry
VLOCAL1: 99.9% of the norm of Vloc inside     64.935 Ry
atom: Maximum radius for 4*pi*r*r*local-pseudopot. charge    1.45251
atom: Maximum radius for r*vlocal+2*Zval:    1.21892
GHOST: No ghost state for L =  0
GHOST: No ghost state for L =  1
GHOST: No ghost state for L =  2

KBgen: Kleinman-Bylander projectors: 
   l= 0   rc=  1.364359   el= -0.488086   Ekb= -2.002077   kbcos= -0.347561
   l= 1   rc=  1.434438   el=  0.001075   Ekb= -0.501617   kbcos= -0.021754
   l= 2   rc=  1.470814   el=  0.002010   Ekb= -0.190607   kbcos= -0.002284

KBgen: Total number of  Kleinman-Bylander projectors:    9
atom: -------------------------------------------------------------------------

atom: SANKEY-TYPE ORBITALS:
atom: Selected multiple-zeta basis: split     

SPLIT: Orbitals with angular momentum L= 0

SPLIT: Basis orbitals for state 1s

SPLIT: PAO cut-off radius determined from an
SPLIT: energy shift=  0.020000 Ry

   izeta = 1
                 lambda =    1.000000
                     rc =    4.708991
                 energy =   -0.469191
                kinetic =    0.984891
    potential(screened) =   -1.454081
       potential(ionic) =   -1.971243

   izeta = 2
                 rmatch =    3.759707
              splitnorm =    0.150000
                 energy =   -0.351800
                kinetic =    1.584822
    potential(screened) =   -1.936622
       potential(ionic) =   -2.473950

POLgen: Perturbative polarization orbital with L=  1

POLgen: Polarization orbital for state 1s

   izeta = 1
                     rc =    4.708991
                 energy =    0.760113
                kinetic =    1.483507
    potential(screened) =   -0.723395
       potential(ionic) =   -1.207344
atom: Total number of Sankey-type orbitals:  5

atm_pop: Valence configuration (for local Pseudopot. screening):
 1s( 1.00)                                                            
Vna: chval, zval:    1.00000   1.00000

Vna:  Cut-off radius for the neutral-atom potential:   4.708991

atom: _________________________________________________________________________

<basis_specs>
===============================================================================
O                    Z=   8    Mass=  16.000        Charge= 0.17977+309
Lmxo=1 Lmxkb= 3    BasisType=split      Semic=F
L=0  Nsemic=0  Cnfigmx=2
          n=1  nzeta=2  polorb=0
            splnorm:   0.15000    
               vcte:    0.0000    
               rinn:    0.0000    
                rcs:    0.0000      0.0000    
            lambdas:    1.0000      1.0000    
L=1  Nsemic=0  Cnfigmx=2
          n=1  nzeta=2  polorb=1
            splnorm:   0.15000    
               vcte:    0.0000    
               rinn:    0.0000    
                rcs:    0.0000      0.0000    
            lambdas:    1.0000      1.0000    
-------------------------------------------------------------------------------
L=0  Nkbl=1  erefs: 0.17977+309
L=1  Nkbl=1  erefs: 0.17977+309
L=2  Nkbl=1  erefs: 0.17977+309
L=3  Nkbl=1  erefs: 0.17977+309
===============================================================================
</basis_specs>

atom: Called for O                     (Z =   8)

read_vps: Pseudopotential generation method:
read_vps: ATM3      Troullier-Martins                       
Total valence charge:    6.00000

xc_check: Exchange-correlation functional:
xc_check: GGA Perdew, Burke & Ernzerhof 1996
xc_check: WARNING: Pseudopotential generated with Ceperley-Alder functional
V l=0 = -2*Zval/r beyond r=  1.1278
V l=1 = -2*Zval/r beyond r=  1.1278
V l=2 = -2*Zval/r beyond r=  1.1278
V l=3 = -2*Zval/r beyond r=  1.1138
All V_l potentials equal beyond r=  1.1278
This should be close to max(r_c) in ps generation
All pots = -2*Zval/r beyond r=  1.1278

VLOCAL1: 99.0% of the norm of Vloc inside     34.126 Ry
VLOCAL1: 99.9% of the norm of Vloc inside     77.774 Ry
atom: Maximum radius for 4*pi*r*r*local-pseudopot. charge    1.37759
atom: Maximum radius for r*vlocal+2*Zval:    1.18566
GHOST: No ghost state for L =  0
GHOST: No ghost state for L =  1
GHOST: No ghost state for L =  2
GHOST: No ghost state for L =  3

KBgen: Kleinman-Bylander projectors: 
   l= 0   rc=  1.294105   el= -1.764717   Ekb=  9.120606   kbcos=  0.329038
   l= 1   rc=  1.294105   el= -0.698441   Ekb= -8.119783   kbcos= -0.400859
   l= 2   rc=  1.448233   el=  0.002031   Ekb= -2.039067   kbcos= -0.003490
   l= 3   rc=  1.561052   el=  0.003153   Ekb= -0.799361   kbcos= -0.000345

KBgen: Total number of  Kleinman-Bylander projectors:   16
atom: -------------------------------------------------------------------------

atom: SANKEY-TYPE ORBITALS:
atom: Selected multiple-zeta basis: split     

SPLIT: Orbitals with angular momentum L= 0

SPLIT: Basis orbitals for state 2s

SPLIT: PAO cut-off radius determined from an
SPLIT: energy shift=  0.020000 Ry

   izeta = 1
                 lambda =    1.000000
                     rc =    3.305093
                 energy =   -1.747165
                kinetic =    1.636523
    potential(screened) =   -3.383688
       potential(ionic) =  -11.346558

   izeta = 2
                 rmatch =    2.479194
              splitnorm =    0.150000
                 energy =   -1.484948
                kinetic =    2.492446
    potential(screened) =   -3.977393
       potential(ionic) =  -12.521955

SPLIT: Orbitals with angular momentum L= 1

SPLIT: Basis orbitals for state 2p

SPLIT: PAO cut-off radius determined from an
SPLIT: energy shift=  0.020000 Ry

   izeta = 1
                 lambda =    1.000000
                     rc =    3.840021
                 energy =   -0.679240
                kinetic =    5.142096
    potential(screened) =   -5.821336
       potential(ionic) =  -13.650628

   izeta = 2
                 rmatch =    2.479194
              splitnorm =    0.150000
                 energy =   -0.370047
                kinetic =    7.736199
    potential(screened) =   -8.106246
       potential(ionic) =  -16.831468

POLgen: Perturbative polarization orbital with L=  2

POLgen: Polarization orbital for state 2p

   izeta = 1
                     rc =    3.840021
                 energy =    2.519349
                kinetic =    4.956526
    potential(screened) =   -2.437177
       potential(ionic) =   -8.829757
atom: Total number of Sankey-type orbitals: 13

atm_pop: Valence configuration (for local Pseudopot. screening):
 2s( 2.00)                                                            
 2p( 4.00)                                                            
Vna: chval, zval:    6.00000   6.00000

Vna:  Cut-off radius for the neutral-atom potential:   3.840021

atom: _________________________________________________________________________

prinput: Basis input ----------------------------------------------------------

PAO.BasisType split     

%block ChemicalSpeciesLabel
    1    1 H                       # Species index, atomic number, species label
    2    8 O                       # Species index, atomic number, species label
%endblock ChemicalSpeciesLabel

%block PAO.Basis                 # Define Basis set
H                     1                    # Species label, number of l-shells
 n=1   0   2 P   1                   # n, l, Nzeta, Polarization, NzetaPol
   4.709      3.760   
   1.000      1.000   
O                     2                    # Species label, number of l-shells
 n=2   0   2                         # n, l, Nzeta 
   3.305      2.479   
   1.000      1.000   
 n=2   1   2 P   1                   # n, l, Nzeta, Polarization, NzetaPol
   3.840      2.479   
   1.000      1.000   
%endblock PAO.Basis

prinput: ----------------------------------------------------------------------

coor:   Atomic-coordinates input format  =     Fractional

siesta: Atomic coordinates (Bohr) and species
siesta:      8.46985   7.81502   7.85135  1        1
siesta:     10.78865   7.77974   9.60147  1        2
siesta:      8.96892   7.77974   9.60147  2        3

siesta: System type = molecule  

initatomlists: Number of atoms, orbitals, and projectors:      3    23    34

siesta: ******************** Simulation parameters ****************************
siesta:
siesta: The following are some of the parameters of the simulation.
siesta: A complete list of the parameters used, including default values,
siesta: can be found in file out.fdf
siesta:
redata: Non-Collinear-spin run           =     F
redata: SpinPolarized (Up/Down) run      =     F
redata: Number of spin components        =     1
redata: Long output                      =     F
redata: Number of Atomic Species         =        2
redata: Charge density info will appear in .RHO file
redata: Write Mulliken Pop.              =     NO
redata: Mesh Cutoff                      =   100.0000  Ry
redata: Net charge of the system         =     0.0000 |e|
redata: Max. number of SCF Iter          =       50
redata: SCF convergence failure will abort job
redata: Mixing is linear
redata: Mix DM in first SCF step ?       =     F
redata: Write Pulay info on disk?        =     F
redata: Discard 1st Pulay DM after  kick =     F
redata: New DM Mixing Weight             =     0.2500
redata: New DM Occupancy tolerance       = 0.000000000001
redata: No kicks to SCF
redata: DM Mixing Weight for Kicks       =     0.5000
redata: DM Tolerance for SCF             =     0.000100
redata: Require Energy convergence for SCF =     F
redata: DM Energy tolerance for SCF      =     0.000100 eV
redata: Require Harris convergence for SCF =     F
redata: DM Harris energy tolerance for SCF =     0.000100 eV
redata: Using Saved Data (generic)   =     F
redata: Use continuation files for DM    =     F
redata: Neglect nonoverlap interactions  =     F
redata: =================Using evolve method to do TDDFT work=================
redata: TDAP: The Final Step of the TDDFT calculation       =     1500
redata: TDAP: The Step length of the TDDFT calculation      =     0.0100fs
redata: TDAP: Whether to read WaveFunction from file        =	    F
redata: TDAP: Write WaveFunction every   1000 steps
 redata: TDAP: The number of promoted electrons              =    0.0000000000000000     
 redata: TDAP: Electrons get promoted From Band              =            0
 redata: TDAP: Electrons get promoted to Band                =            0
redata: TDAP: The number of empty bands to consider         =        5
redata: TDAP: zmin of efield           = 0.000000000000
redata: TDAP: zmax of efield              = 1.000000000000
redata: TDAP: Whether to do FSSH      =	    F
redata: TDAP: How many steps per dephase     =	       0
redata: =======================================================================
redata: Electronic Temperature           =     0.0019  Ry
redata: Fix the spin of the system       =     F
redata: Dynamics option                  =     Verlet MD run
redata: Initial MD time step             =        1
redata:   Final MD time step             =     1500
redata: Length of MD time step           =     0.0000  fs
redata: Initial Temperature of MD run    =   300.0000  K
redata: Perform a MD quench              =     F
redata: ***********************************************************************
Total number of electrons:     8.000000
Total ionic charge:     8.000000

* ProcessorY, Blocksize:    2   1

 Kpoints in:            1 . Kpoints trimmed:            1

siesta: k-grid: Number of k-points =     1
siesta: k-grid: Cutoff (effective) =     5.000 Ang
siesta: k-grid: Supercell and displacements
siesta: k-grid:    1   0   0      0.000
siesta: k-grid:    0   1   0      0.000
siesta: k-grid:    0   0   1      0.000

* Maximum dynamic memory allocated =     2 MB
 =================================================================================================
 ....................................-!$$$$Q$C!-..................................................
 ................................!$$$$$$$$$$$$$$$$Q$-.............................................
 .............................:$$$$$$$-.-$$$.$$$$$7$$$7...........................................
 ...........................>$$Q.$$$$$...$Q$.$$$$$!.-$$$-.........................................
 ...........................$$Q..$$$$$....!-.$$$$$!...$$$?........................................
 ...........................$$!..$$$$$.......$$$$$!...-Q$$$.......................................
 ...........................Q-...$$$$$.......$$$$$:....$$$$$......................................
 ................................$$$$$.......$$$$$!....7$$$Q-.......:$$$$-...............!$Q$$$$-.
 ................................$$$$$.......$$$$$!....!$$$$?.......$$$$$$......7$$$$$$:...$$$$$-.
 ................................$$$$$.......$$$$$!....-$$$$$......7$$$$$$O.......Q$$$$....C$$$$..
 ................................$$$$$.......$$$$$!....-$$$$$.....!$$:-$$$$C......$$$$Q--:$$Q$....
 ................................$$$$$.......$$$$$!....-$$$$$.....$$>..-$$$$:.....$$$$$...........
 ................................$$$$$.......$$$$$!....!$$$$7....$$$Q$$$$$$$$:....$$$$$...........
 ................................$$$$$.......$$$$$!....7$$$$-...!$$>.....$$$$$$$>$$$$$$?..........
 ................................$$$$$.......$$$$$:....$Q$$$....$$$.....$:........................
 ...................-??>.........$$$$$.......$$$$$!...-Q$$$....!$$Q$-.............................
 ..........>??...................$$$$$.......$$$$$!...$$Q$....C$-.................................
 ....!??..................:?....CQ$$$$:......$$$$$!.$$$$-...................77....................
 ?7?..........>....77...........$$$$$$$-....:$$$$$$$$$-..............!..........??>...............
 .........7...?!.........!.........-$Q$$....$$$$Q7........7.........?7...>.........:7?............
 ..........::........?......?.....7.............:?....-7......!........7...7..........?7-.........
 .....7...?........?......7....?!............!.....!>....7......-........?...?.........!7?........
 ....?...:.........7......!.....7.......-!:-.............?......?.............:.........>??.......
 ....7....>.........?................7?!-..->?>........-.......7.........7...>!..........??>......
 .....?...............?7....................................?7..............>?...........??.......
 .......?..................7??!......................>??!.................-?............??........
 .........77.......:............................................:.......7?............!7?.........
 .............??....................................................?7..............>?7...........
 ?.................!??!......................................7?7-................!?:..............
 ...!7......................!?????7!...........-!?7???7:......................7...................
 .........7-............................................................!7........................
 .................:-............................................>-................................
 .................................................................................................
 The following papers describe the method and practical implementation of the TDAP package:
 C. Lian, M.X. Guan, S.Q. Hu, J. Zhang, S. Meng. Photoexcitation in solids: First-principles quantum simulations by real-time TDDFT. Adv. Theo. Simul. 1, 1800055 (2018).
 W. Ma, J. Zhang, L. Yan, Y. Jiao, Y. Gao, S. Meng. Recent progresses in real-time local-basis implementation of time dependent density functional theory for electron-nucleus dynamics. Comp. Mater. Sci. 112, 478 (2016).
 J. Ren, E. Kaxiras, S. Meng. Optical properties of clusters and molecules from real-time time-dependent density functional theory using a self-consistent field. Molecular Physics 108, 1829 (2010).
 S. Meng, E. Kaxiras. Local basis-set and real time implementation of time-dependent density-functional theory for excited state dynamics simulations. J. Chem. Phys. 129, 054110 (2008).
 =================================================================================================

siesta:                 ==============================
                            Begin MD step =      1
                        ==============================

outcell: Unit cell vectors (Ang):
       10.000000    0.000000    0.000000
        0.000000   10.000000    0.000000
        0.000000    0.000000   10.000000

outcell: Cell vector modules (Ang)   :   10.000000   10.000000   10.000000
outcell: Cell angles (23,13,12) (deg):     90.0000     90.0000     90.0000
outcell: Cell volume (Ang**3)        :   1000.0000
New_DM. Step:     1
Initializing Density Matrix...

InitMesh: MESH =    64 x    64 x    64 =      262144
InitMesh: Mesh cutoff (required, used) =   100.000   113.204 Ry

efield: External electric field =    0.000000    0.002000    0.000000 Ry/Bohr/e

* Maximum dynamic memory allocated =     4 MB

stepf: Fermi-Dirac step function

fermid: Calculating for lowest-exciton excited state

stepf: Fermi-Dirac step function

siesta: Program's energy decomposition (eV):
siesta: Ebs     =      -117.663575
siesta: Eions   =       815.854478
siesta: Ena     =       170.060777
siesta: Ekin    =       351.179876
siesta: Enl     =       -55.092970
siesta: DEna    =        -0.000003
siesta: DUscf   =         0.000000
siesta: DUext   =         0.000000
siesta: Exc     =      -113.802961
siesta: eta*DQ  =         0.000000
siesta: Emadel  =         0.000000
siesta: Emeta   =         0.000000
siesta: Emolmec =         0.000000
siesta: Ekinion =         0.000000
siesta: Eharris =      -468.718782
siesta: Etot    =      -463.509760
siesta: FreeEng =      -463.509760

siesta: iscf   Eharris(eV)      E_KS(eV)   FreeEng(eV)   dDmax  Ef(eV)
siesta:    1     -468.7188     -463.5098     -463.5098  1.3581 -2.8798
timer: Routine,Calls,Time,% = IterSCF        1       8.568  77.23
elaps: Routine,Calls,Wall,% = IterSCF        1       0.858  77.30
siesta:    2     -469.0256     -467.7724     -467.7724  0.1390  0.5646
siesta:    3     -468.3048     -467.9454     -467.9454  0.0321 -0.6640
siesta:    4     -468.2433     -468.0235     -468.0235  0.0121 -1.0019
siesta:    5     -468.2370     -468.0773     -468.0773  0.0142 -1.0938
siesta:    6     -468.2362     -468.1170     -468.1170  0.0119 -1.1159
siesta:    7     -468.2360     -468.1468     -468.1468  0.0091 -1.1189
siesta:    8     -468.2360     -468.1691     -468.1691  0.0067 -1.1175
siesta:    9     -468.2359     -468.1858     -468.1858  0.0049 -1.1157
siesta:   10     -468.2359     -468.1983     -468.1983  0.0036 -1.1143
siesta:   11     -468.2359     -468.2077     -468.2077  0.0026 -1.1134
siesta:   12     -468.2359     -468.2148     -468.2148  0.0019 -1.1128
siesta:   13     -468.2359     -468.2201     -468.2201  0.0014 -1.1124
siesta:   14     -468.2359     -468.2240     -468.2240  0.0011 -1.1122
siesta:   15     -468.2359     -468.2270     -468.2270  0.0008 -1.1121
siesta:   16     -468.2359     -468.2292     -468.2292  0.0006 -1.1120
siesta:   17     -468.2359     -468.2309     -468.2309  0.0004 -1.1120
siesta:   18     -468.2359     -468.2321     -468.2321  0.0003 -1.1119
siesta:   19     -468.2359     -468.2331     -468.2331  0.0002 -1.1119
siesta:   20     -468.2359     -468.2338     -468.2338  0.0002 -1.1119
siesta:   21     -468.2359     -468.2343     -468.2343  0.0001 -1.1119
siesta:   22     -468.2359     -468.2347     -468.2347  0.0001 -1.1119
siesta:   23     -468.2359     -468.2350     -468.2350  0.0001 -1.1119

siesta: E_KS(eV) =             -468.2352

siesta: E_KS - E_eggbox =      -468.2352

siesta: Atomic forces (eV/Ang):
----------------------------------------
   Tot   -0.063705   -0.464552   -0.053453
----------------------------------------
   Max    0.485814
   Res    0.165212    sqrt( Sum f_i^2 / 3N )
----------------------------------------
   Max    0.485814    constrained

Stress-tensor-Voigt (kbar):        0.03        0.03        0.11        0.10        0.05       -0.01
(Free)E + p*V (eV/cell)     -468.2706
Target enthalpy (eV/cell)     -468.2352

siesta: Stress tensor (static) (eV/Ang**3):
         0.000053    0.000000    0.000010
         0.000000    0.000123   -0.000000
         0.000010   -0.000000    0.000084

siesta: Pressure (static):         -0.13882278  kBar

siesta: Stress tensor (total) (eV/Ang**3):
         0.000019    0.000060   -0.000006
         0.000060    0.000020    0.000031
        -0.000006    0.000031    0.000067

siesta: Pressure (total):         -0.05658353  kBar

TDAP : Electric dipole (a.u.)  =    0.316917    0.013661   -0.419374
TDAP : Electric dipole (Debye) =    0.805523    0.034724   -1.065944
TDAP : Energy  :  -24.21 -12.51  -8.09  -6.16   2.04   4.25  10.67  12.36
TDAP : Partition :    2.00   2.00   2.00   2.00   0.00   0.00   0.00   0.00

siesta: Temp_ion =     300.000 K

* Maximum dynamic memory allocated =     4 MB

siesta:                 ==============================
                            Begin MD step =      2
                        ==============================

outcell: Unit cell vectors (Ang):
       10.000000    0.000000    0.000000
        0.000000   10.000000    0.000000
        0.000000    0.000000   10.000000

outcell: Cell vector modules (Ang)   :   10.000000   10.000000   10.000000
outcell: Cell angles (23,13,12) (deg):     90.0000     90.0000     90.0000
outcell: Cell volume (Ang**3)        :   1000.0000
New_DM. Step:     2
Re-using DM from previous geometry...
Re-using DM without extrapolation for lack of history

efield: External electric field =    0.000000    0.002000    0.000000 Ry/Bohr/e
TDAP: read envelope from 'TD.DeltaElectricField'

TDAP: Electric Field

TDAP: External EField    0.000000    0.002000    0.000000 Ry/Bohr/e

siesta: iscf   Eharris(eV)      E_KS(eV)   FreeEng(eV)   dDmax  Ef(eV)
siesta:    1     -468.2359     -468.2352     -468.2352  0.0000 -1.1119

siesta: E_KS(eV) =             -468.2359

siesta: Atomic forces (eV/Ang):
----------------------------------------
   Tot   -0.063693   -0.464557   -0.053462
----------------------------------------
   Max    0.485806
   Res    0.165191    sqrt( Sum f_i^2 / 3N )
----------------------------------------
   Max    0.485806    constrained

Stress-tensor-Voigt (kbar):        0.03        0.03        0.11        0.10        0.05       -0.01
(Free)E + p*V (eV/cell)     -468.2717
Target enthalpy (eV/cell)     -468.2359

siesta: Stress tensor (static) (eV/Ang**3):
         0.000054    0.000000    0.000011
         0.000000    0.000123   -0.000000
         0.000011   -0.000000    0.000084

siesta: Pressure (static):         -0.13948762  kBar

siesta: Stress tensor (total) (eV/Ang**3):
         0.000020    0.000060   -0.000006
         0.000060    0.000020    0.000031
        -0.000006    0.000031    0.000068

siesta: Pressure (total):         -0.05724837  kBar

TDAP : Electric dipole (a.u.)  =    0.316918    0.013661   -0.419375
TDAP : Electric dipole (Debye) =    0.805525    0.034723   -1.065947
TDAP : Energy  :  -24.21 -12.51  -8.09  -6.16   2.04   4.25  10.67  12.36
TDAP : Partition :    2.00   2.00   2.00   2.00   0.00   0.00   0.00   0.00

siesta: Temp_ion =     300.000 K

* Maximum dynamic memory allocated =     4 MB

siesta:                 ==============================
                            Begin MD step =      3
                        ==============================

outcell: Unit cell vectors (Ang):
       10.000000    0.000000    0.000000
        0.000000   10.000000    0.000000
        0.000000    0.000000   10.000000

outcell: Cell vector modules (Ang)   :   10.000000   10.000000   10.000000
outcell: Cell angles (23,13,12) (deg):     90.0000     90.0000     90.0000
outcell: Cell volume (Ang**3)        :   1000.0000
New_DM. Step:     3
Re-using DM from previous geometry...
Extrapolating Density Matrix...

TDAP: Electric Field

TDAP: External EField    0.000000    0.000000    0.000000 Ry/Bohr/e

siesta: iscf   Eharris(eV)      E_KS(eV)   FreeEng(eV)   dDmax  Ef(eV)
siesta:    1     -468.2355     -468.2362     -468.2362  0.0000 -1.1119

siesta: E_KS(eV) =             -468.2355

siesta: Atomic forces (eV/Ang):
----------------------------------------
   Tot   -0.063708   -0.464567   -0.053457
----------------------------------------
   Max    0.478565
   Res    0.162811    sqrt( Sum f_i^2 / 3N )
----------------------------------------
   Max    0.478565    constrained

Stress-tensor-Voigt (kbar):        0.03        0.03        0.11        0.09        0.05       -0.01
(Free)E + p*V (eV/cell)     -468.2709
Target enthalpy (eV/cell)     -468.2355

siesta: Stress tensor (static) (eV/Ang**3):
         0.000053    0.000000    0.000011
        -0.000006    0.000122    0.000008
         0.000011   -0.000000    0.000084

siesta: Pressure (static):         -0.13884587  kBar

siesta: Stress tensor (total) (eV/Ang**3):
         0.000019    0.000060   -0.000006
         0.000054    0.000019    0.000039
        -0.000006    0.000031    0.000068

siesta: Pressure (total):         -0.05660663  kBar

TDAP : Electric dipole (a.u.)  =    0.316918    0.013003   -0.419376
TDAP : Electric dipole (Debye) =    0.805525    0.033050   -1.065948
TDAP : Energy  :  -24.22 -12.51  -8.10  -6.17   2.04   4.25  10.67  12.36
TDAP : Partition :    2.00   2.00   2.00   2.00   0.00   0.00   0.00   0.00

siesta: Temp_ion =     300.000 K

* Maximum dynamic memory allocated =     4 MB

siesta:                 ==============================
                            Begin MD step =      4
                        ==============================

outcell: Unit cell vectors (Ang):
       10.000000    0.000000    0.000000
        0.000000   10.000000    0.000000
        0.000000    0.000000   10.000000

outcell: Cell vector modules (Ang)   :   10.000000   10.000000   10.000000
outcell: Cell angles (23,13,12) (deg):     90.0000     90.0000     90.0000
outcell: Cell volume (Ang**3)        :   1000.0000
New_DM. Step:     4
Re-using DM from previous geometry...
Extrapolating Density Matrix...

TDAP: Electric Field

TDAP: External EField    0.000000    0.000000    0.000000 Ry/Bohr/e

siesta: iscf   Eharris(eV)      E_KS(eV)   FreeEng(eV)   dDmax  Ef(eV)
siesta:    1     -468.2356     -468.2356     -468.2356  0.0000 -1.1119

siesta: E_KS(eV) =             -468.2355

siesta: Atomic forces (eV/Ang):
----------------------------------------
   Tot   -0.063713   -0.464538   -0.053458
----------------------------------------
   Max    0.472707
   Res    0.160871    sqrt( Sum f_i^2 / 3N )
----------------------------------------
   Max    0.472707    constrained

Stress-tensor-Voigt (kbar):        0.03        0.03        0.11        0.09        0.05       -0.01
(Free)E + p*V (eV/cell)     -468.2709
Target enthalpy (eV/cell)     -468.2355

siesta: Stress tensor (static) (eV/Ang**3):
         0.000053    0.000000    0.000011
        -0.000004    0.000122    0.000005
         0.000011   -0.000000    0.000084

siesta: Pressure (static):         -0.13885288  kBar

siesta: Stress tensor (total) (eV/Ang**3):
         0.000019    0.000060   -0.000006
         0.000056    0.000019    0.000037
        -0.000006    0.000031    0.000068

siesta: Pressure (total):         -0.05661363  kBar

TDAP : Electric dipole (a.u.)  =    0.316918    0.011363   -0.419376
TDAP : Electric dipole (Debye) =    0.805526    0.028882   -1.065949
TDAP : Energy  :  -24.22 -12.51  -8.10  -6.17   2.04   4.25  10.67  12.36
TDAP : Partition :    2.00   2.00   2.00   2.00   0.00   0.00   0.00   0.00

siesta: Temp_ion =     300.000 K

* Maximum dynamic memory allocated =     4 MB

siesta:                 ==============================
                            Begin MD step =      5
                        ==============================

outcell: Unit cell vectors (Ang):
       10.000000    0.000000    0.000000
        0.000000   10.000000    0.000000
        0.000000    0.000000   10.000000

outcell: Cell vector modules (Ang)   :   10.000000   10.000000   10.000000
outcell: Cell angles (23,13,12) (deg):     90.0000     90.0000     90.0000
outcell: Cell volume (Ang**3)        :   1000.0000
New_DM. Step:     5
Re-using DM from previous geometry...
Extrapolating Density Matrix...

TDAP: Electric Field

TDAP: External EField    0.000000    0.000000    0.000000 Ry/Bohr/e

siesta: iscf   Eharris(eV)      E_KS(eV)   FreeEng(eV)   dDmax  Ef(eV)
siesta:    1     -468.2355     -468.2355     -468.2355  0.0000 -1.1119

siesta: E_KS(eV) =             -468.2355

siesta: Atomic forces (eV/Ang):
----------------------------------------
   Tot   -0.063707   -0.464557   -0.053486
----------------------------------------
   Max    0.463961
   Res    0.158000    sqrt( Sum f_i^2 / 3N )
----------------------------------------
   Max    0.463961    constrained

Stress-tensor-Voigt (kbar):        0.03        0.03        0.11        0.09        0.05       -0.01
(Free)E + p*V (eV/cell)     -468.2709
Target enthalpy (eV/cell)     -468.2355

siesta: Stress tensor (static) (eV/Ang**3):
         0.000053    0.000000    0.000011
        -0.000001    0.000122    0.000001
         0.000011   -0.000000    0.000084

siesta: Pressure (static):         -0.13887185  kBar

siesta: Stress tensor (total) (eV/Ang**3):
         0.000019    0.000060   -0.000006
         0.000059    0.000019    0.000032
        -0.000006    0.000031    0.000068

siesta: Pressure (total):         -0.05663260  kBar

TDAP : Electric dipole (a.u.)  =    0.316919    0.009552   -0.419373
TDAP : Electric dipole (Debye) =    0.805529    0.024279   -1.065939
TDAP : Energy  :  -24.22 -12.51  -8.10  -6.17   2.04   4.25  10.67  12.36
TDAP : Partition :    2.00   2.00   2.00   2.00   0.00   0.00   0.00   0.00

siesta: Temp_ion =     300.000 K

* Maximum dynamic memory allocated =     4 MB

siesta:                 ==============================
                            Begin MD step =      6
                        ==============================

outcell: Unit cell vectors (Ang):
       10.000000    0.000000    0.000000
        0.000000   10.000000    0.000000
        0.000000    0.000000   10.000000

outcell: Cell vector modules (Ang)   :   10.000000   10.000000   10.000000
outcell: Cell angles (23,13,12) (deg):     90.0000     90.0000     90.0000
outcell: Cell volume (Ang**3)        :   1000.0000
New_DM. Step:     6
Re-using DM from previous geometry...
Extrapolating Density Matrix...

TDAP: Electric Field

TDAP: External EField    0.000000    0.000000    0.000000 Ry/Bohr/e

siesta: iscf   Eharris(eV)      E_KS(eV)   FreeEng(eV)   dDmax  Ef(eV)
siesta:    1     -468.2355     -468.2355     -468.2355  0.0000 -1.1119

siesta: E_KS(eV) =             -468.2355

siesta: Atomic forces (eV/Ang):
----------------------------------------
   Tot   -0.063718   -0.464490   -0.053528
----------------------------------------
   Max    0.454384
   Res    0.154890    sqrt( Sum f_i^2 / 3N )
----------------------------------------
   Max    0.454384    constrained

Stress-tensor-Voigt (kbar):        0.03        0.03        0.11        0.10        0.05       -0.01
(Free)E + p*V (eV/cell)     -468.2709
Target enthalpy (eV/cell)     -468.2355

siesta: Stress tensor (static) (eV/Ang**3):
         0.000053    0.000000    0.000011
         0.000003    0.000122   -0.000004
         0.000011   -0.000000    0.000084

siesta: Pressure (static):         -0.13892438  kBar

siesta: Stress tensor (total) (eV/Ang**3):
         0.000019    0.000060   -0.000006
         0.000062    0.000019    0.000028
        -0.000006    0.000031    0.000067

siesta: Pressure (total):         -0.05668513  kBar

TDAP : Electric dipole (a.u.)  =    0.316924    0.008272   -0.419362
TDAP : Electric dipole (Debye) =    0.805540    0.021026   -1.065912
TDAP : Energy  :  -24.22 -12.51  -8.10  -6.17   2.04   4.25  10.67  12.36
TDAP : Partition :    2.00   2.00   2.00   2.00   0.00   0.00   0.00   0.00

siesta: Temp_ion =     300.000 K

* Maximum dynamic memory allocated =     4 MB

siesta:                 ==============================
                            Begin MD step =      7
                        ==============================

outcell: Unit cell vectors (Ang):
       10.000000    0.000000    0.000000
        0.000000   10.000000    0.000000
        0.000000    0.000000   10.000000

outcell: Cell vector modules (Ang)   :   10.000000   10.000000   10.000000
outcell: Cell angles (23,13,12) (deg):     90.0000     90.0000     90.0000
outcell: Cell volume (Ang**3)        :   1000.0000
New_DM. Step:     7
Re-using DM from previous geometry...
Extrapolating Density Matrix...

TDAP: Electric Field

TDAP: External EField    0.000000    0.000000    0.000000 Ry/Bohr/e

siesta: iscf   Eharris(eV)      E_KS(eV)   FreeEng(eV)   dDmax  Ef(eV)
siesta:    1     -468.2355     -468.2355     -468.2355  0.0001 -1.1119

siesta: E_KS(eV) =             -468.2355

siesta: Atomic forces (eV/Ang):
----------------------------------------
   Tot   -0.063725   -0.464386   -0.053531
----------------------------------------
   Max    0.446893
   Res    0.152481    sqrt( Sum f_i^2 / 3N )
----------------------------------------
   Max    0.446893    constrained

Stress-tensor-Voigt (kbar):        0.03        0.03        0.11        0.10        0.05       -0.01
(Free)E + p*V (eV/cell)     -468.2709
Target enthalpy (eV/cell)     -468.2355

siesta: Stress tensor (static) (eV/Ang**3):
         0.000053    0.000000    0.000011
         0.000005    0.000123   -0.000007
         0.000011   -0.000000    0.000084

siesta: Pressure (static):         -0.13897874  kBar

siesta: Stress tensor (total) (eV/Ang**3):
         0.000019    0.000060   -0.000006
         0.000065    0.000020    0.000025
        -0.000006    0.000031    0.000067

siesta: Pressure (total):         -0.05673949  kBar

TDAP : Electric dipole (a.u.)  =    0.316931    0.007651   -0.419345
TDAP : Electric dipole (Debye) =    0.805559    0.019446   -1.065870
TDAP : Energy  :  -24.22 -12.51  -8.10  -6.17   2.04   4.25  10.67  12.36
TDAP : Partition :    2.00   2.00   2.00   2.00   0.00   0.00   0.00   0.00

siesta: Temp_ion =     300.000 K

* Maximum dynamic memory allocated =     4 MB

siesta:                 ==============================
                            Begin MD step =      8
                        ==============================

outcell: Unit cell vectors (Ang):
       10.000000    0.000000    0.000000
        0.000000   10.000000    0.000000
        0.000000    0.000000   10.000000

outcell: Cell vector modules (Ang)   :   10.000000   10.000000   10.000000
outcell: Cell angles (23,13,12) (deg):     90.0000     90.0000     90.0000
outcell: Cell volume (Ang**3)        :   1000.0000
New_DM. Step:     8
Re-using DM from previous geometry...
Extrapolating Density Matrix...

TDAP: Electric Field

TDAP: External EField    0.000000    0.000000    0.000000 Ry/Bohr/e

siesta: iscf   Eharris(eV)      E_KS(eV)   FreeEng(eV)   dDmax  Ef(eV)
siesta:    1     -468.2355     -468.2355     -468.2355  0.0001 -1.1119
siesta:    2     -468.2356     -468.2356     -468.2356  0.0000 -1.1119

siesta: E_KS(eV) =             -468.2356

siesta: Atomic forces (eV/Ang):
----------------------------------------
   Tot   -0.063738   -0.464325   -0.053508
----------------------------------------
   Max    0.443292
   Res    0.151329    sqrt( Sum f_i^2 / 3N )
----------------------------------------
   Max    0.443292    constrained

Stress-tensor-Voigt (kbar):        0.03        0.03        0.11        0.11        0.05       -0.01
(Free)E + p*V (eV/cell)     -468.2709
Target enthalpy (eV/cell)     -468.2356

siesta: Stress tensor (static) (eV/Ang**3):
         0.000053    0.000000    0.000011
         0.000007    0.000123   -0.000009
         0.000011   -0.000000    0.000084

siesta: Pressure (static):         -0.13892596  kBar

siesta: Stress tensor (total) (eV/Ang**3):
         0.000019    0.000060   -0.000006
         0.000066    0.000020    0.000023
        -0.000006    0.000031    0.000067

siesta: Pressure (total):         -0.05668672  kBar

TDAP : Electric dipole (a.u.)  =    0.316941    0.007359   -0.419328
TDAP : Electric dipole (Debye) =    0.805583    0.018705   -1.065827
TDAP : Energy  :  -24.22 -12.51  -8.10  -6.17   2.04   4.25  10.67  12.36
TDAP : Partition :    2.00   2.00   2.00   2.00   0.00   0.00   0.00   0.00

siesta: Temp_ion =     300.000 K

* Maximum dynamic memory allocated =     4 MB

siesta:                 ==============================
                            Begin MD step =      9
                        ==============================

outcell: Unit cell vectors (Ang):
       10.000000    0.000000    0.000000
        0.000000   10.000000    0.000000
        0.000000    0.000000   10.000000

outcell: Cell vector modules (Ang)   :   10.000000   10.000000   10.000000
outcell: Cell angles (23,13,12) (deg):     90.0000     90.0000     90.0000
outcell: Cell volume (Ang**3)        :   1000.0000
New_DM. Step:     9
Re-using DM from previous geometry...
Extrapolating Density Matrix...

TDAP: Electric Field

TDAP: External EField    0.000000    0.000000    0.000000 Ry/Bohr/e

siesta: iscf   Eharris(eV)      E_KS(eV)   FreeEng(eV)   dDmax  Ef(eV)
siesta:    1     -468.2356     -468.2356     -468.2356  0.0000 -1.1119

siesta: E_KS(eV) =             -468.2355

siesta: Atomic forces (eV/Ang):
----------------------------------------
   Tot   -0.063737   -0.464327   -0.053494
----------------------------------------
   Max    0.442270
   Res    0.151000    sqrt( Sum f_i^2 / 3N )
----------------------------------------
   Max    0.442270    constrained

Stress-tensor-Voigt (kbar):        0.03        0.03        0.11        0.11        0.05       -0.01
(Free)E + p*V (eV/cell)     -468.2709
Target enthalpy (eV/cell)     -468.2355

siesta: Stress tensor (static) (eV/Ang**3):
         0.000053    0.000000    0.000011
         0.000007    0.000123   -0.000009
         0.000011   -0.000000    0.000084

siesta: Pressure (static):         -0.13887042  kBar

siesta: Stress tensor (total) (eV/Ang**3):
         0.000019    0.000060   -0.000006
         0.000066    0.000020    0.000022
        -0.000006    0.000031    0.000067

siesta: Pressure (total):         -0.05663118  kBar

TDAP : Electric dipole (a.u.)  =    0.316950    0.007093   -0.419314
TDAP : Electric dipole (Debye) =    0.805608    0.018028   -1.065791
TDAP : Energy  :  -24.22 -12.51  -8.10  -6.17   2.04   4.25  10.67  12.36
TDAP : Partition :    2.00   2.00   2.00   2.00   0.00   0.00   0.00   0.00

siesta: Temp_ion =     300.000 K

* Maximum dynamic memory allocated =     4 MB

siesta:                 ==============================
                            Begin MD step =     10
                        ==============================

outcell: Unit cell vectors (Ang):
       10.000000    0.000000    0.000000
        0.000000   10.000000    0.000000
        0.000000    0.000000   10.000000

outcell: Cell vector modules (Ang)   :   10.000000   10.000000   10.000000
outcell: Cell angles (23,13,12) (deg):     90.0000     90.0000     90.0000
outcell: Cell volume (Ang**3)        :   1000.0000
New_DM. Step:    10
Re-using DM from previous geometry...
Extrapolating Density Matrix...

TDAP: Electric Field

TDAP: External EField    0.000000    0.000000    0.000000 Ry/Bohr/e

siesta: iscf   Eharris(eV)      E_KS(eV)   FreeEng(eV)   dDmax  Ef(eV)
siesta:    1     -468.2355     -468.2355     -468.2355  0.0001 -1.1119

siesta: E_KS(eV) =             -468.2355

siesta: Atomic forces (eV/Ang):
----------------------------------------
   Tot   -0.063712   -0.464357   -0.053475
----------------------------------------
   Max    0.441781
   Res    0.150839    sqrt( Sum f_i^2 / 3N )
----------------------------------------
   Max    0.441781    constrained

Stress-tensor-Voigt (kbar):        0.03        0.03        0.11        0.11        0.05       -0.01
(Free)E + p*V (eV/cell)     -468.2708
Target enthalpy (eV/cell)     -468.2355

siesta: Stress tensor (static) (eV/Ang**3):
         0.000053    0.000000    0.000011
         0.000007    0.000123   -0.000009
         0.000011   -0.000000    0.000084

siesta: Pressure (static):         -0.13876743  kBar

siesta: Stress tensor (total) (eV/Ang**3):
         0.000019    0.000060   -0.000006
         0.000066    0.000020    0.000022
        -0.000006    0.000031    0.000067

siesta: Pressure (total):         -0.05652818  kBar

TDAP : Electric dipole (a.u.)  =    0.316959    0.006856   -0.419305
TDAP : Electric dipole (Debye) =    0.805631    0.017427   -1.065767
TDAP : Energy  :  -24.22 -12.51  -8.10  -6.17   2.04   4.25  10.67  12.36
TDAP : Partition :    2.00   2.00   2.00   2.00   0.00   0.00   0.00   0.00

siesta: Temp_ion =     300.000 K

* Maximum dynamic memory allocated =     4 MB

siesta:                 ==============================
                            Begin MD step =     11
                        ==============================

outcell: Unit cell vectors (Ang):
       10.000000    0.000000    0.000000
        0.000000   10.000000    0.000000
        0.000000    0.000000   10.000000

outcell: Cell vector modules (Ang)   :   10.000000   10.000000   10.000000
outcell: Cell angles (23,13,12) (deg):     90.0000     90.0000     90.0000
outcell: Cell volume (Ang**3)        :   1000.0000
New_DM. Step:    11
Re-using DM from previous geometry...
Extrapolating Density Matrix...

TDAP: Electric Field

TDAP: External EField    0.000000    0.000000    0.000000 Ry/Bohr/e

siesta: iscf   Eharris(eV)      E_KS(eV)   FreeEng(eV)   dDmax  Ef(eV)
siesta:    1     -468.2355     -468.2355     -468.2355  0.0002 -1.1119
siesta:    2     -468.2355     -468.2355     -468.2355  0.0000 -1.1119

siesta: E_KS(eV) =             -468.2355

siesta: Atomic forces (eV/Ang):
----------------------------------------
   Tot   -0.063708   -0.464371   -0.053497
----------------------------------------
   Max    0.439875
   Res    0.150231    sqrt( Sum f_i^2 / 3N )
----------------------------------------
   Max    0.439875    constrained

Stress-tensor-Voigt (kbar):        0.03        0.03        0.11        0.11        0.05       -0.01
(Free)E + p*V (eV/cell)     -468.2708
Target enthalpy (eV/cell)     -468.2355

siesta: Stress tensor (static) (eV/Ang**3):
         0.000053    0.000000    0.000011
         0.000008    0.000123   -0.000010
         0.000011   -0.000000    0.000084

siesta: Pressure (static):         -0.13869201  kBar

siesta: Stress tensor (total) (eV/Ang**3):
         0.000019    0.000060   -0.000006
         0.000067    0.000020    0.000021
        -0.000006    0.000031    0.000067

siesta: Pressure (total):         -0.05645276  kBar

TDAP : Electric dipole (a.u.)  =    0.316967    0.006913   -0.419297
TDAP : Electric dipole (Debye) =    0.805651    0.017570   -1.065747
TDAP : Energy  :  -24.22 -12.51  -8.10  -6.17   2.04   4.25  10.67  12.36
TDAP : Partition :    2.00   2.00   2.00   2.00   0.00   0.00   0.00   0.00

siesta: Temp_ion =     300.000 K

* Maximum dynamic memory allocated =     4 MB

siesta:                 ==============================
                            Begin MD step =     12
                        ==============================

outcell: Unit cell vectors (Ang):
       10.000000    0.000000    0.000000
        0.000000   10.000000    0.000000
        0.000000    0.000000   10.000000

outcell: Cell vector modules (Ang)   :   10.000000   10.000000   10.000000
outcell: Cell angles (23,13,12) (deg):     90.0000     90.0000     90.0000
outcell: Cell volume (Ang**3)        :   1000.0000
New_DM. Step:    12
Re-using DM from previous geometry...
Extrapolating Density Matrix...

TDAP: Electric Field

TDAP: External EField    0.000000    0.000000    0.000000 Ry/Bohr/e

siesta: iscf   Eharris(eV)      E_KS(eV)   FreeEng(eV)   dDmax  Ef(eV)
siesta:    1     -468.2355     -468.2355     -468.2355  0.0001 -1.1119

siesta: E_KS(eV) =             -468.2355

siesta: Atomic forces (eV/Ang):
----------------------------------------
   Tot   -0.063696   -0.464479   -0.053475
----------------------------------------
   Max    0.438591
   Res    0.149820    sqrt( Sum f_i^2 / 3N )
----------------------------------------
   Max    0.438591    constrained

Stress-tensor-Voigt (kbar):        0.03        0.03        0.11        0.11        0.05       -0.01
(Free)E + p*V (eV/cell)     -468.2707
Target enthalpy (eV/cell)     -468.2355

siesta: Stress tensor (static) (eV/Ang**3):
         0.000053    0.000000    0.000011
         0.000008    0.000123   -0.000011
         0.000011   -0.000000    0.000084

siesta: Pressure (static):         -0.13861914  kBar

siesta: Stress tensor (total) (eV/Ang**3):
         0.000019    0.000060   -0.000006
         0.000067    0.000020    0.000021
        -0.000006    0.000031    0.000067

siesta: Pressure (total):         -0.05637989  kBar

TDAP : Electric dipole (a.u.)  =    0.316974    0.007383   -0.419291
TDAP : Electric dipole (Debye) =    0.805667    0.018766   -1.065732
TDAP : Energy  :  -24.22 -12.51  -8.10  -6.17   2.04   4.25  10.67  12.36
TDAP : Partition :    2.00   2.00   2.00   2.00   0.00   0.00   0.00   0.00

siesta: Temp_ion =     300.000 K

* Maximum dynamic memory allocated =     4 MB

siesta:                 ==============================
                            Begin MD step =     13
                        ==============================

outcell: Unit cell vectors (Ang):
       10.000000    0.000000    0.000000
        0.000000   10.000000    0.000000
        0.000000    0.000000   10.000000

outcell: Cell vector modules (Ang)   :   10.000000   10.000000   10.000000
outcell: Cell angles (23,13,12) (deg):     90.0000     90.0000     90.0000
outcell: Cell volume (Ang**3)        :   1000.0000
New_DM. Step:    13
Re-using DM from previous geometry...
Extrapolating Density Matrix...

TDAP: Electric Field

TDAP: External EField    0.000000    0.000000    0.000000 Ry/Bohr/e

siesta: iscf   Eharris(eV)      E_KS(eV)   FreeEng(eV)   dDmax  Ef(eV)
siesta:    1     -468.2355     -468.2355     -468.2355  0.0001 -1.1119

siesta: E_KS(eV) =             -468.2355

siesta: Atomic forces (eV/Ang):
----------------------------------------
   Tot   -0.063706   -0.464584   -0.053527
----------------------------------------
   Max    0.439979
   Res    0.150256    sqrt( Sum f_i^2 / 3N )
----------------------------------------
   Max    0.439979    constrained

Stress-tensor-Voigt (kbar):        0.03        0.03        0.11        0.11        0.05       -0.01
(Free)E + p*V (eV/cell)     -468.2707
Target enthalpy (eV/cell)     -468.2355

siesta: Stress tensor (static) (eV/Ang**3):
         0.000053    0.000000    0.000011
         0.000008    0.000123   -0.000010
         0.000011   -0.000000    0.000083

siesta: Pressure (static):         -0.13858291  kBar

siesta: Stress tensor (total) (eV/Ang**3):
         0.000019    0.000060   -0.000006
         0.000067    0.000020    0.000021
        -0.000006    0.000031    0.000067

siesta: Pressure (total):         -0.05634367  kBar

TDAP : Electric dipole (a.u.)  =    0.316977    0.008180   -0.419289
TDAP : Electric dipole (Debye) =    0.805676    0.020792   -1.065727
TDAP : Energy  :  -24.22 -12.51  -8.10  -6.17   2.04   4.25  10.67  12.36
TDAP : Partition :    2.00   2.00   2.00   2.00   0.00   0.00   0.00   0.00

siesta: Temp_ion =     300.000 K

* Maximum dynamic memory allocated =     4 MB

siesta:                 ==============================
                            Begin MD step =     14
                        ==============================

outcell: Unit cell vectors (Ang):
       10.000000    0.000000    0.000000
        0.000000   10.000000    0.000000
        0.000000    0.000000   10.000000

outcell: Cell vector modules (Ang)   :   10.000000   10.000000   10.000000
outcell: Cell angles (23,13,12) (deg):     90.0000     90.0000     90.0000
outcell: Cell volume (Ang**3)        :   1000.0000
New_DM. Step:    14
Re-using DM from previous geometry...
Extrapolating Density Matrix...

TDAP: Electric Field

TDAP: External EField    0.000000    0.000000    0.000000 Ry/Bohr/e

siesta: iscf   Eharris(eV)      E_KS(eV)   FreeEng(eV)   dDmax  Ef(eV)
siesta:    1     -468.2356     -468.2355     -468.2355  0.0001 -1.1119
siesta:    2     -468.2355     -468.2355     -468.2355  0.0000 -1.1119

siesta: E_KS(eV) =             -468.2355

siesta: Atomic forces (eV/Ang):
----------------------------------------
   Tot   -0.063710   -0.464736   -0.053496
----------------------------------------
   Max    0.446132
   Res    0.152208    sqrt( Sum f_i^2 / 3N )
----------------------------------------
   Max    0.446132    constrained

Stress-tensor-Voigt (kbar):        0.03        0.03        0.11        0.10        0.05       -0.01
(Free)E + p*V (eV/cell)     -468.2707
Target enthalpy (eV/cell)     -468.2355

siesta: Stress tensor (static) (eV/Ang**3):
         0.000053    0.000000    0.000011
         0.000006    0.000122   -0.000007
         0.000011   -0.000000    0.000084

siesta: Pressure (static):         -0.13859899  kBar

siesta: Stress tensor (total) (eV/Ang**3):
         0.000019    0.000060   -0.000006
         0.000065    0.000019    0.000024
        -0.000006    0.000031    0.000067

siesta: Pressure (total):         -0.05635974  kBar

TDAP : Electric dipole (a.u.)  =    0.316976    0.008930   -0.419292
TDAP : Electric dipole (Debye) =    0.805673    0.022697   -1.065735
TDAP : Energy  :  -24.22 -12.51  -8.10  -6.17   2.04   4.25  10.67  12.36
TDAP : Partition :    2.00   2.00   2.00   2.00   0.00   0.00   0.00   0.00

siesta: Temp_ion =     300.000 K

* Maximum dynamic memory allocated =     4 MB

siesta:                 ==============================
                            Begin MD step =     15
                        ==============================

outcell: Unit cell vectors (Ang):
       10.000000    0.000000    0.000000
        0.000000   10.000000    0.000000
        0.000000    0.000000   10.000000

outcell: Cell vector modules (Ang)   :   10.000000   10.000000   10.000000
outcell: Cell angles (23,13,12) (deg):     90.0000     90.0000     90.0000
outcell: Cell volume (Ang**3)        :   1000.0000
New_DM. Step:    15
Re-using DM from previous geometry...
Extrapolating Density Matrix...

TDAP: Electric Field

TDAP: External EField    0.000000    0.000000    0.000000 Ry/Bohr/e

siesta: iscf   Eharris(eV)      E_KS(eV)   FreeEng(eV)   dDmax  Ef(eV)
siesta:    1     -468.2355     -468.2355     -468.2355  0.0001 -1.1119

siesta: E_KS(eV) =             -468.2356

siesta: Atomic forces (eV/Ang):
----------------------------------------
   Tot   -0.063714   -0.464727   -0.053526
----------------------------------------
   Max    0.455478
   Res    0.155209    sqrt( Sum f_i^2 / 3N )
----------------------------------------
   Max    0.455478    constrained

Stress-tensor-Voigt (kbar):        0.03        0.03        0.11        0.10        0.05       -0.01
(Free)E + p*V (eV/cell)     -468.2707
Target enthalpy (eV/cell)     -468.2356

siesta: Stress tensor (static) (eV/Ang**3):
         0.000053    0.000000    0.000011
         0.000002    0.000122   -0.000003
         0.000011   -0.000000    0.000084

siesta: Pressure (static):         -0.13856985  kBar

siesta: Stress tensor (total) (eV/Ang**3):
         0.000019    0.000060   -0.000006
         0.000062    0.000019    0.000029
        -0.000006    0.000031    0.000067

siesta: Pressure (total):         -0.05633060  kBar

TDAP : Electric dipole (a.u.)  =    0.316971    0.009369   -0.419299
TDAP : Electric dipole (Debye) =    0.805660    0.023815   -1.065751
TDAP : Energy  :  -24.22 -12.51  -8.10  -6.17   2.04   4.25  10.67  12.36
TDAP : Partition :    2.00   2.00   2.00   2.00   0.00   0.00   0.00   0.00

siesta: Temp_ion =     300.000 K

* Maximum dynamic memory allocated =     4 MB

siesta:                 ==============================
                            Begin MD step =     16
                        ==============================

outcell: Unit cell vectors (Ang):
       10.000000    0.000000    0.000000
        0.000000   10.000000    0.000000
        0.000000    0.000000   10.000000

outcell: Cell vector modules (Ang)   :   10.000000   10.000000   10.000000
outcell: Cell angles (23,13,12) (deg):     90.0000     90.0000     90.0000
outcell: Cell volume (Ang**3)        :   1000.0000
New_DM. Step:    16
Re-using DM from previous geometry...
Extrapolating Density Matrix...

TDAP: Electric Field

TDAP: External EField    0.000000    0.000000    0.000000 Ry/Bohr/e

siesta: iscf   Eharris(eV)      E_KS(eV)   FreeEng(eV)   dDmax  Ef(eV)
siesta:    1     -468.2355     -468.2355     -468.2355  0.0001 -1.1119

siesta: E_KS(eV) =             -468.2355

siesta: Atomic forces (eV/Ang):
----------------------------------------
   Tot   -0.063710   -0.464580   -0.053497
----------------------------------------
   Max    0.464924
   Res    0.158275    sqrt( Sum f_i^2 / 3N )
----------------------------------------
   Max    0.464924    constrained

Stress-tensor-Voigt (kbar):        0.03        0.03        0.11        0.09        0.05       -0.01
(Free)E + p*V (eV/cell)     -468.2707
Target enthalpy (eV/cell)     -468.2355

siesta: Stress tensor (static) (eV/Ang**3):
         0.000054    0.000000    0.000011
        -0.000001    0.000122    0.000001
         0.000011   -0.000000    0.000084

siesta: Pressure (static):         -0.13862869  kBar

siesta: Stress tensor (total) (eV/Ang**3):
         0.000019    0.000060   -0.000006
         0.000058    0.000019    0.000033
        -0.000006    0.000031    0.000067

siesta: Pressure (total):         -0.05638944  kBar

TDAP : Electric dipole (a.u.)  =    0.316962    0.009490   -0.419306
TDAP : Electric dipole (Debye) =    0.805637    0.024122   -1.065770
TDAP : Energy  :  -24.22 -12.51  -8.10  -6.17   2.04   4.25  10.67  12.36
TDAP : Partition :    2.00   2.00   2.00   2.00   0.00   0.00   0.00   0.00

siesta: Temp_ion =     300.000 K

* Maximum dynamic memory allocated =     4 MB

siesta:                 ==============================
                            Begin MD step =     17
                        ==============================

outcell: Unit cell vectors (Ang):
       10.000000    0.000000    0.000000
        0.000000   10.000000    0.000000
        0.000000    0.000000   10.000000

outcell: Cell vector modules (Ang)   :   10.000000   10.000000   10.000000
outcell: Cell angles (23,13,12) (deg):     90.0000     90.0000     90.0000
outcell: Cell volume (Ang**3)        :   1000.0000
New_DM. Step:    17
Re-using DM from previous geometry...
Extrapolating Density Matrix...

TDAP: Electric Field

TDAP: External EField    0.000000    0.000000    0.000000 Ry/Bohr/e

siesta: iscf   Eharris(eV)      E_KS(eV)   FreeEng(eV)   dDmax  Ef(eV)
siesta:    1     -468.2355     -468.2355     -468.2355  0.0001 -1.1119
siesta:    2     -468.2356     -468.2356     -468.2356  0.0000 -1.1119

siesta: E_KS(eV) =             -468.2356

siesta: Atomic forces (eV/Ang):
----------------------------------------
   Tot   -0.063727   -0.464281   -0.053508
----------------------------------------
   Max    0.471719
   Res    0.160505    sqrt( Sum f_i^2 / 3N )
----------------------------------------
   Max    0.471719    constrained

Stress-tensor-Voigt (kbar):        0.03        0.03        0.11        0.09        0.05       -0.01
(Free)E + p*V (eV/cell)     -468.2708
Target enthalpy (eV/cell)     -468.2356

siesta: Stress tensor (static) (eV/Ang**3):
         0.000053    0.000000    0.000011
        -0.000003    0.000122    0.000005
         0.000011   -0.000000    0.000084

siesta: Pressure (static):         -0.13862621  kBar

siesta: Stress tensor (total) (eV/Ang**3):
         0.000019    0.000060   -0.000006
         0.000056    0.000019    0.000036
        -0.000006    0.000031    0.000067

siesta: Pressure (total):         -0.05638696  kBar

TDAP : Electric dipole (a.u.)  =    0.316952    0.009465   -0.419313
TDAP : Electric dipole (Debye) =    0.805612    0.024058   -1.065789
TDAP : Energy  :  -24.22 -12.51  -8.10  -6.17   2.04   4.25  10.67  12.36
TDAP : Partition :    2.00   2.00   2.00   2.00   0.00   0.00   0.00   0.00

siesta: Temp_ion =     300.000 K

* Maximum dynamic memory allocated =     4 MB

siesta:                 ==============================
                            Begin MD step =     18
                        ==============================

outcell: Unit cell vectors (Ang):
       10.000000    0.000000    0.000000
        0.000000   10.000000    0.000000
        0.000000    0.000000   10.000000

outcell: Cell vector modules (Ang)   :   10.000000   10.000000   10.000000
outcell: Cell angles (23,13,12) (deg):     90.0000     90.0000     90.0000
outcell: Cell volume (Ang**3)        :   1000.0000
New_DM. Step:    18
Re-using DM from previous geometry...
Extrapolating Density Matrix...

TDAP: Electric Field

TDAP: External EField    0.000000    0.000000    0.000000 Ry/Bohr/e

siesta: iscf   Eharris(eV)      E_KS(eV)   FreeEng(eV)   dDmax  Ef(eV)
siesta:    1     -468.2356     -468.2356     -468.2356  0.0000 -1.1119

siesta: E_KS(eV) =             -468.2355

siesta: Atomic forces (eV/Ang):
----------------------------------------
   Tot   -0.063757   -0.464022   -0.053549
----------------------------------------
   Max    0.475703
   Res    0.161823    sqrt( Sum f_i^2 / 3N )
----------------------------------------
   Max    0.475703    constrained

Stress-tensor-Voigt (kbar):        0.03        0.03        0.11        0.09        0.05       -0.01
(Free)E + p*V (eV/cell)     -468.2708
Target enthalpy (eV/cell)     -468.2355

siesta: Stress tensor (static) (eV/Ang**3):
         0.000054    0.000000    0.000011
        -0.000005    0.000122    0.000007
         0.000011   -0.000000    0.000084

siesta: Pressure (static):         -0.13868995  kBar

siesta: Stress tensor (total) (eV/Ang**3):
         0.000019    0.000060   -0.000006
         0.000054    0.000019    0.000038
        -0.000006    0.000031    0.000067

siesta: Pressure (total):         -0.05645070  kBar

TDAP : Electric dipole (a.u.)  =    0.316943    0.009408   -0.419322
TDAP : Electric dipole (Debye) =    0.805590    0.023914   -1.065810
TDAP : Energy  :  -24.22 -12.51  -8.10  -6.17   2.04   4.25  10.67  12.36
TDAP : Partition :    2.00   2.00   2.00   2.00   0.00   0.00   0.00   0.00

siesta: Temp_ion =     300.000 K

* Maximum dynamic memory allocated =     4 MB

siesta:                 ==============================
                            Begin MD step =     19
                        ==============================

outcell: Unit cell vectors (Ang):
       10.000000    0.000000    0.000000
        0.000000   10.000000    0.000000
        0.000000    0.000000   10.000000

outcell: Cell vector modules (Ang)   :   10.000000   10.000000   10.000000
outcell: Cell angles (23,13,12) (deg):     90.0000     90.0000     90.0000
outcell: Cell volume (Ang**3)        :   1000.0000
New_DM. Step:    19
Re-using DM from previous geometry...
Extrapolating Density Matrix...

TDAP: Electric Field

TDAP: External EField    0.000000    0.000000    0.000000 Ry/Bohr/e

siesta: iscf   Eharris(eV)      E_KS(eV)   FreeEng(eV)   dDmax  Ef(eV)
siesta:    1     -468.2355     -468.2355     -468.2355  0.0001 -1.1119
siesta:    2     -468.2355     -468.2355     -468.2355  0.0000 -1.1119

siesta: E_KS(eV) =             -468.2355

siesta: Atomic forces (eV/Ang):
----------------------------------------
   Tot   -0.063729   -0.464055   -0.053613
----------------------------------------
   Max    0.477731
   Res    0.162496    sqrt( Sum f_i^2 / 3N )
----------------------------------------
   Max    0.477731    constrained

Stress-tensor-Voigt (kbar):        0.03        0.03        0.11        0.09        0.05       -0.01
(Free)E + p*V (eV/cell)     -468.2708
Target enthalpy (eV/cell)     -468.2355

siesta: Stress tensor (static) (eV/Ang**3):
         0.000053    0.000000    0.000011
        -0.000006    0.000122    0.000008
         0.000011   -0.000000    0.000084

siesta: Pressure (static):         -0.13865486  kBar

siesta: Stress tensor (total) (eV/Ang**3):
         0.000019    0.000060   -0.000006
         0.000054    0.000019    0.000039
        -0.000006    0.000031    0.000067

siesta: Pressure (total):         -0.05641561  kBar

TDAP : Electric dipole (a.u.)  =    0.316936    0.009292   -0.419331
TDAP : Electric dipole (Debye) =    0.805571    0.023617   -1.065834
TDAP : Energy  :  -24.22 -12.51  -8.10  -6.17   2.04   4.25  10.67  12.36
TDAP : Partition :    2.00   2.00   2.00   2.00   0.00   0.00   0.00   0.00

siesta: Temp_ion =     300.000 K

* Maximum dynamic memory allocated =     4 MB

siesta:                 ==============================
                            Begin MD step =     20
                        ==============================

outcell: Unit cell vectors (Ang):
       10.000000    0.000000    0.000000
        0.000000   10.000000    0.000000
        0.000000    0.000000   10.000000

outcell: Cell vector modules (Ang)   :   10.000000   10.000000   10.000000
outcell: Cell angles (23,13,12) (deg):     90.0000     90.0000     90.0000
outcell: Cell volume (Ang**3)        :   1000.0000
New_DM. Step:    20
Re-using DM from previous geometry...
Extrapolating Density Matrix...

TDAP: Electric Field

TDAP: External EField    0.000000    0.000000    0.000000 Ry/Bohr/e

siesta: iscf   Eharris(eV)      E_KS(eV)   FreeEng(eV)   dDmax  Ef(eV)
siesta:    1     -468.2356     -468.2356     -468.2356  0.0001 -1.1119

siesta: E_KS(eV) =             -468.2356

siesta: Atomic forces (eV/Ang):
----------------------------------------
   Tot   -0.063722   -0.464263   -0.053625
----------------------------------------
   Max    0.478428
   Res    0.162730    sqrt( Sum f_i^2 / 3N )
----------------------------------------
   Max    0.478428    constrained

Stress-tensor-Voigt (kbar):        0.03        0.03        0.11        0.09        0.05       -0.01
(Free)E + p*V (eV/cell)     -468.2707
Target enthalpy (eV/cell)     -468.2356

siesta: Stress tensor (static) (eV/Ang**3):
         0.000053    0.000000    0.000011
        -0.000006    0.000122    0.000008
         0.000011   -0.000000    0.000084

siesta: Pressure (static):         -0.13861245  kBar

siesta: Stress tensor (total) (eV/Ang**3):
         0.000019    0.000060   -0.000006
         0.000053    0.000019    0.000039
        -0.000006    0.000031    0.000067

siesta: Pressure (total):         -0.05637320  kBar

TDAP : Electric dipole (a.u.)  =    0.316931    0.009030   -0.419338
TDAP : Electric dipole (Debye) =    0.805558    0.022951   -1.065852
TDAP : Energy  :  -24.22 -12.51  -8.10  -6.17   2.04   4.25  10.67  12.36
TDAP : Partition :    2.00   2.00   2.00   2.00   0.00   0.00   0.00   0.00

siesta: Temp_ion =     300.000 K

* Maximum dynamic memory allocated =     4 MB

siesta:                 ==============================
                            Begin MD step =     21
                        ==============================

outcell: Unit cell vectors (Ang):
       10.000000    0.000000    0.000000
        0.000000   10.000000    0.000000
        0.000000    0.000000   10.000000

outcell: Cell vector modules (Ang)   :   10.000000   10.000000   10.000000
outcell: Cell angles (23,13,12) (deg):     90.0000     90.0000     90.0000
outcell: Cell volume (Ang**3)        :   1000.0000
New_DM. Step:    21
Re-using DM from previous geometry...
Extrapolating Density Matrix...

TDAP: Electric Field

TDAP: External EField    0.000000    0.000000    0.000000 Ry/Bohr/e

siesta: iscf   Eharris(eV)      E_KS(eV)   FreeEng(eV)   dDmax  Ef(eV)
siesta:    1     -468.2356     -468.2356     -468.2356  0.0000 -1.1119

siesta: E_KS(eV) =             -468.2355

siesta: Atomic forces (eV/Ang):
----------------------------------------
   Tot   -0.063704   -0.464428   -0.053598
----------------------------------------
   Max    0.477228
   Res    0.162337    sqrt( Sum f_i^2 / 3N )
----------------------------------------
   Max    0.477228    constrained

Stress-tensor-Voigt (kbar):        0.03        0.03        0.11        0.09        0.05       -0.01
(Free)E + p*V (eV/cell)     -468.2707
Target enthalpy (eV/cell)     -468.2355

siesta: Stress tensor (static) (eV/Ang**3):
         0.000053    0.000000    0.000011
        -0.000005    0.000122    0.000007
         0.000011   -0.000000    0.000084

siesta: Pressure (static):         -0.13859709  kBar

siesta: Stress tensor (total) (eV/Ang**3):
         0.000019    0.000060   -0.000006
         0.000054    0.000019    0.000039
        -0.000006    0.000031    0.000067

siesta: Pressure (total):         -0.05635785  kBar

TDAP : Electric dipole (a.u.)  =    0.316927    0.008669   -0.419342
TDAP : Electric dipole (Debye) =    0.805549    0.022034   -1.065861
TDAP : Energy  :  -24.22 -12.51  -8.10  -6.17   2.04   4.25  10.67  12.36
TDAP : Partition :    2.00   2.00   2.00   2.00   0.00   0.00   0.00   0.00

siesta: Temp_ion =     300.000 K

* Maximum dynamic memory allocated =     4 MB

siesta:                 ==============================
                            Begin MD step =     22
                        ==============================

outcell: Unit cell vectors (Ang):
       10.000000    0.000000    0.000000
        0.000000   10.000000    0.000000
        0.000000    0.000000   10.000000

outcell: Cell vector modules (Ang)   :   10.000000   10.000000   10.000000
outcell: Cell angles (23,13,12) (deg):     90.0000     90.0000     90.0000
outcell: Cell volume (Ang**3)        :   1000.0000
New_DM. Step:    22
Re-using DM from previous geometry...
Extrapolating Density Matrix...

TDAP: Electric Field

TDAP: External EField    0.000000    0.000000    0.000000 Ry/Bohr/e

siesta: iscf   Eharris(eV)      E_KS(eV)   FreeEng(eV)   dDmax  Ef(eV)
siesta:    1     -468.2355     -468.2355     -468.2355  0.0001 -1.1119
siesta:    2     -468.2355     -468.2355     -468.2355  0.0000 -1.1119

siesta: E_KS(eV) =             -468.2356

siesta: Atomic forces (eV/Ang):
----------------------------------------
   Tot   -0.063735   -0.464440   -0.053567
----------------------------------------
   Max    0.474329
   Res    0.161389    sqrt( Sum f_i^2 / 3N )
----------------------------------------
   Max    0.474329    constrained

Stress-tensor-Voigt (kbar):        0.03        0.03        0.11        0.09        0.05       -0.01
(Free)E + p*V (eV/cell)     -468.2707
Target enthalpy (eV/cell)     -468.2356

siesta: Stress tensor (static) (eV/Ang**3):
         0.000053    0.000000    0.000011
        -0.000004    0.000122    0.000006
         0.000011   -0.000000    0.000084

siesta: Pressure (static):         -0.13860693  kBar

siesta: Stress tensor (total) (eV/Ang**3):
         0.000019    0.000060   -0.000006
         0.000055    0.000019    0.000037
        -0.000006    0.000031    0.000067

siesta: Pressure (total):         -0.05636768  kBar

TDAP : Electric dipole (a.u.)  =    0.316926    0.008323   -0.419340
TDAP : Electric dipole (Debye) =    0.805545    0.021155   -1.065856
TDAP : Energy  :  -24.22 -12.51  -8.10  -6.17   2.04   4.25  10.67  12.36
TDAP : Partition :    2.00   2.00   2.00   2.00   0.00   0.00   0.00   0.00

siesta: Temp_ion =     300.000 K

* Maximum dynamic memory allocated =     4 MB

siesta:                 ==============================
                            Begin MD step =     23
                        ==============================

outcell: Unit cell vectors (Ang):
       10.000000    0.000000    0.000000
        0.000000   10.000000    0.000000
        0.000000    0.000000   10.000000

outcell: Cell vector modules (Ang)   :   10.000000   10.000000   10.000000
outcell: Cell angles (23,13,12) (deg):     90.0000     90.0000     90.0000
outcell: Cell volume (Ang**3)        :   1000.0000
New_DM. Step:    23
Re-using DM from previous geometry...
Extrapolating Density Matrix...

TDAP: Electric Field

TDAP: External EField    0.000000    0.000000    0.000000 Ry/Bohr/e

siesta: iscf   Eharris(eV)      E_KS(eV)   FreeEng(eV)   dDmax  Ef(eV)
siesta:    1     -468.2355     -468.2355     -468.2355  0.0000 -1.1119

siesta: E_KS(eV) =             -468.2356

siesta: Atomic forces (eV/Ang):
----------------------------------------
   Tot   -0.063745   -0.464289   -0.053546
----------------------------------------
   Max    0.470547
   Res    0.160152    sqrt( Sum f_i^2 / 3N )
----------------------------------------
   Max    0.470547    constrained

Stress-tensor-Voigt (kbar):        0.03        0.03        0.11        0.09        0.05       -0.01
(Free)E + p*V (eV/cell)     -468.2708
Target enthalpy (eV/cell)     -468.2356

siesta: Stress tensor (static) (eV/Ang**3):
         0.000053    0.000000    0.000011
        -0.000003    0.000122    0.000004
         0.000010   -0.000000    0.000084

siesta: Pressure (static):         -0.13866698  kBar

siesta: Stress tensor (total) (eV/Ang**3):
         0.000019    0.000060   -0.000006
         0.000056    0.000019    0.000036
        -0.000006    0.000031    0.000067

siesta: Pressure (total):         -0.05642773  kBar

TDAP : Electric dipole (a.u.)  =    0.316925    0.008089   -0.419335
TDAP : Electric dipole (Debye) =    0.805544    0.020561   -1.065843
TDAP : Energy  :  -24.22 -12.51  -8.10  -6.17   2.04   4.25  10.67  12.36
TDAP : Partition :    2.00   2.00   2.00   2.00   0.00   0.00   0.00   0.00

siesta: Temp_ion =     300.000 K

* Maximum dynamic memory allocated =     4 MB

siesta:                 ==============================
                            Begin MD step =     24
                        ==============================

outcell: Unit cell vectors (Ang):
       10.000000    0.000000    0.000000
        0.000000   10.000000    0.000000
        0.000000    0.000000   10.000000

outcell: Cell vector modules (Ang)   :   10.000000   10.000000   10.000000
outcell: Cell angles (23,13,12) (deg):     90.0000     90.0000     90.0000
outcell: Cell volume (Ang**3)        :   1000.0000
New_DM. Step:    24
Re-using DM from previous geometry...
Extrapolating Density Matrix...

TDAP: Electric Field

TDAP: External EField    0.000000    0.000000    0.000000 Ry/Bohr/e

siesta: iscf   Eharris(eV)      E_KS(eV)   FreeEng(eV)   dDmax  Ef(eV)
siesta:    1     -468.2356     -468.2356     -468.2356  0.0001 -1.1119
siesta:    2     -468.2356     -468.2356     -468.2356  0.0000 -1.1119

siesta: E_KS(eV) =             -468.2356

siesta: Atomic forces (eV/Ang):
----------------------------------------
   Tot   -0.063731   -0.464167   -0.053533
----------------------------------------
   Max    0.467744
   Res    0.159236    sqrt( Sum f_i^2 / 3N )
----------------------------------------
   Max    0.467744    constrained

Stress-tensor-Voigt (kbar):        0.03        0.03        0.11        0.09        0.05       -0.01
(Free)E + p*V (eV/cell)     -468.2708
Target enthalpy (eV/cell)     -468.2356

siesta: Stress tensor (static) (eV/Ang**3):
         0.000053    0.000000    0.000011
        -0.000002    0.000122    0.000003
         0.000010   -0.000000    0.000084

siesta: Pressure (static):         -0.13874336  kBar

siesta: Stress tensor (total) (eV/Ang**3):
         0.000019    0.000060   -0.000006
         0.000057    0.000019    0.000034
        -0.000006    0.000031    0.000067

siesta: Pressure (total):         -0.05650412  kBar

TDAP : Electric dipole (a.u.)  =    0.316926    0.007892   -0.419330
TDAP : Electric dipole (Debye) =    0.805546    0.020060   -1.065830
TDAP : Energy  :  -24.22 -12.51  -8.10  -6.17   2.04   4.25  10.67  12.36
TDAP : Partition :    2.00   2.00   2.00   2.00   0.00   0.00   0.00   0.00

siesta: Temp_ion =     300.000 K

* Maximum dynamic memory allocated =     4 MB

siesta:                 ==============================
                            Begin MD step =     25
                        ==============================

outcell: Unit cell vectors (Ang):
       10.000000    0.000000    0.000000
        0.000000   10.000000    0.000000
        0.000000    0.000000   10.000000

outcell: Cell vector modules (Ang)   :   10.000000   10.000000   10.000000
outcell: Cell angles (23,13,12) (deg):     90.0000     90.0000     90.0000
outcell: Cell volume (Ang**3)        :   1000.0000
New_DM. Step:    25
Re-using DM from previous geometry...
Extrapolating Density Matrix...

TDAP: Electric Field

TDAP: External EField    0.000000    0.000000    0.000000 Ry/Bohr/e

siesta: iscf   Eharris(eV)      E_KS(eV)   FreeEng(eV)   dDmax  Ef(eV)
siesta:    1     -468.2355     -468.2355     -468.2355  0.0002 -1.1119
siesta:    2     -468.2356     -468.2356     -468.2356  0.0000 -1.1119

siesta: E_KS(eV) =             -468.2356

siesta: Atomic forces (eV/Ang):
----------------------------------------
   Tot   -0.063711   -0.464159   -0.053516
----------------------------------------
   Max    0.465911
   Res    0.158638    sqrt( Sum f_i^2 / 3N )
----------------------------------------
   Max    0.465911    constrained

Stress-tensor-Voigt (kbar):        0.03        0.03        0.11        0.09        0.05       -0.01
(Free)E + p*V (eV/cell)     -468.2709
Target enthalpy (eV/cell)     -468.2356

siesta: Stress tensor (static) (eV/Ang**3):
         0.000053    0.000000    0.000011
        -0.000001    0.000122    0.000002
         0.000010   -0.000000    0.000084

siesta: Pressure (static):         -0.13877885  kBar

siesta: Stress tensor (total) (eV/Ang**3):
         0.000019    0.000060   -0.000006
         0.000058    0.000019    0.000034
        -0.000006    0.000031    0.000067

siesta: Pressure (total):         -0.05653961  kBar

TDAP : Electric dipole (a.u.)  =    0.316928    0.007623   -0.419330
TDAP : Electric dipole (Debye) =    0.805550    0.019376   -1.065831
TDAP : Energy  :  -24.22 -12.51  -8.10  -6.17   2.04   4.25  10.67  12.36
TDAP : Partition :    2.00   2.00   2.00   2.00   0.00   0.00   0.00   0.00

siesta: Temp_ion =     300.000 K

* Maximum dynamic memory allocated =     4 MB

siesta:                 ==============================
                            Begin MD step =     26
                        ==============================

outcell: Unit cell vectors (Ang):
       10.000000    0.000000    0.000000
        0.000000   10.000000    0.000000
        0.000000    0.000000   10.000000

outcell: Cell vector modules (Ang)   :   10.000000   10.000000   10.000000
outcell: Cell angles (23,13,12) (deg):     90.0000     90.0000     90.0000
outcell: Cell volume (Ang**3)        :   1000.0000
New_DM. Step:    26
Re-using DM from previous geometry...
Extrapolating Density Matrix...

TDAP: Electric Field

TDAP: External EField    0.000000    0.000000    0.000000 Ry/Bohr/e

siesta: iscf   Eharris(eV)      E_KS(eV)   FreeEng(eV)   dDmax  Ef(eV)
siesta:    1     -468.2356     -468.2356     -468.2356  0.0000 -1.1119

siesta: E_KS(eV) =             -468.2355

siesta: Atomic forces (eV/Ang):
----------------------------------------
   Tot   -0.063713   -0.464281   -0.053576
----------------------------------------
   Max    0.463383
   Res    0.157816    sqrt( Sum f_i^2 / 3N )
----------------------------------------
   Max    0.463383    constrained

Stress-tensor-Voigt (kbar):        0.03        0.03        0.11        0.09        0.05       -0.01
(Free)E + p*V (eV/cell)     -468.2709
Target enthalpy (eV/cell)     -468.2355

siesta: Stress tensor (static) (eV/Ang**3):
         0.000053    0.000000    0.000011
        -0.000000    0.000122    0.000001
         0.000011   -0.000000    0.000084

siesta: Pressure (static):         -0.13883323  kBar

siesta: Stress tensor (total) (eV/Ang**3):
[...]
(Free)E + p*V (eV/cell)     -468.2708
Target enthalpy (eV/cell)     -468.2356

siesta: Stress tensor (static) (eV/Ang**3):
         0.000053    0.000000    0.000011
         0.000001    0.000122   -0.000001
         0.000011   -0.000000    0.000084

siesta: Pressure (static):         -0.13863180  kBar

siesta: Stress tensor (total) (eV/Ang**3):
         0.000019    0.000060   -0.000006
         0.000060    0.000019    0.000031
        -0.000006    0.000031    0.000067

siesta: Pressure (total):         -0.05639256  kBar

TDAP : Electric dipole (a.u.)  =    0.316950    0.008976   -0.419289
TDAP : Electric dipole (Debye) =    0.805608    0.022814   -1.065728
TDAP : Energy  :  -24.22 -12.51  -8.10  -6.17   2.04   4.25  10.67  12.36
TDAP : Partition :    2.00   2.00   2.00   2.00   0.00   0.00   0.00   0.00

siesta: Temp_ion =     300.000 K

* Maximum dynamic memory allocated =     4 MB

siesta:                 ==============================
                            Begin MD step =   1496
                        ==============================

outcell: Unit cell vectors (Ang):
       10.000000    0.000000    0.000000
        0.000000   10.000000    0.000000
        0.000000    0.000000   10.000000

outcell: Cell vector modules (Ang)   :   10.000000   10.000000   10.000000
outcell: Cell angles (23,13,12) (deg):     90.0000     90.0000     90.0000
outcell: Cell volume (Ang**3)        :   1000.0000
New_DM. Step:  1496
Re-using DM from previous geometry...
Extrapolating Density Matrix...

TDAP: Electric Field

TDAP: External EField    0.000000    0.000000    0.000000 Ry/Bohr/e

siesta: iscf   Eharris(eV)      E_KS(eV)   FreeEng(eV)   dDmax  Ef(eV)
siesta:    1     -468.2356     -468.2356     -468.2356  0.0000 -1.1119

siesta: E_KS(eV) =             -468.2356

siesta: Atomic forces (eV/Ang):
----------------------------------------
   Tot   -0.063868   -0.464483   -0.053658
----------------------------------------
   Max    0.458663
   Res    0.156400    sqrt( Sum f_i^2 / 3N )
----------------------------------------
   Max    0.458663    constrained

Stress-tensor-Voigt (kbar):        0.03        0.03        0.11        0.10        0.05       -0.01
(Free)E + p*V (eV/cell)     -468.2709
Target enthalpy (eV/cell)     -468.2356

siesta: Stress tensor (static) (eV/Ang**3):
         0.000053    0.000000    0.000011
         0.000001    0.000122   -0.000002
         0.000010   -0.000000    0.000085

siesta: Pressure (static):         -0.13870964  kBar

siesta: Stress tensor (total) (eV/Ang**3):
         0.000018    0.000060   -0.000006
         0.000060    0.000019    0.000030
        -0.000006    0.000031    0.000068

siesta: Pressure (total):         -0.05647039  kBar

TDAP : Electric dipole (a.u.)  =    0.316774    0.008963   -0.419427
TDAP : Electric dipole (Debye) =    0.805159    0.022782   -1.066078
TDAP : Energy  :  -24.22 -12.51  -8.10  -6.17   2.04   4.25  10.67  12.36
TDAP : Partition :    2.00   2.00   2.00   2.00   0.00   0.00   0.00   0.00

siesta: Temp_ion =     300.000 K

* Maximum dynamic memory allocated =     4 MB

siesta:                 ==============================
                            Begin MD step =   1497
                        ==============================

outcell: Unit cell vectors (Ang):
       10.000000    0.000000    0.000000
        0.000000   10.000000    0.000000
        0.000000    0.000000   10.000000

outcell: Cell vector modules (Ang)   :   10.000000   10.000000   10.000000
outcell: Cell angles (23,13,12) (deg):     90.0000     90.0000     90.0000
outcell: Cell volume (Ang**3)        :   1000.0000
New_DM. Step:  1497
Re-using DM from previous geometry...
Extrapolating Density Matrix...

TDAP: Electric Field

TDAP: External EField    0.000000    0.000000    0.000000 Ry/Bohr/e

siesta: iscf   Eharris(eV)      E_KS(eV)   FreeEng(eV)   dDmax  Ef(eV)
siesta:    1     -468.2356     -468.2356     -468.2356  0.0001 -1.1119

siesta: E_KS(eV) =             -468.2356

siesta: Atomic forces (eV/Ang):
----------------------------------------
   Tot   -0.063634   -0.464497   -0.053390
----------------------------------------
   Max    0.457079
   Res    0.155703    sqrt( Sum f_i^2 / 3N )
----------------------------------------
   Max    0.457079    constrained

Stress-tensor-Voigt (kbar):        0.03        0.03        0.11        0.10        0.05       -0.01
(Free)E + p*V (eV/cell)     -468.2709
Target enthalpy (eV/cell)     -468.2356

siesta: Stress tensor (static) (eV/Ang**3):
         0.000053    0.000000    0.000010
         0.000002    0.000122   -0.000002
         0.000011   -0.000000    0.000084

siesta: Pressure (static):         -0.13875277  kBar

siesta: Stress tensor (total) (eV/Ang**3):
         0.000019    0.000060   -0.000007
         0.000061    0.000019    0.000029
        -0.000006    0.000031    0.000067

siesta: Pressure (total):         -0.05651352  kBar

TDAP : Electric dipole (a.u.)  =    0.316840    0.008982   -0.419386
TDAP : Electric dipole (Debye) =    0.805327    0.022831   -1.065973
TDAP : Energy  :  -24.22 -12.51  -8.10  -6.17   2.04   4.25  10.67  12.36
TDAP : Partition :    2.00   2.00   2.00   2.00   0.00   0.00   0.00   0.00

siesta: Temp_ion =     300.000 K

* Maximum dynamic memory allocated =     4 MB

siesta:                 ==============================
                            Begin MD step =   1498
                        ==============================

outcell: Unit cell vectors (Ang):
       10.000000    0.000000    0.000000
        0.000000   10.000000    0.000000
        0.000000    0.000000   10.000000

outcell: Cell vector modules (Ang)   :   10.000000   10.000000   10.000000
outcell: Cell angles (23,13,12) (deg):     90.0000     90.0000     90.0000
outcell: Cell volume (Ang**3)        :   1000.0000
New_DM. Step:  1498
Re-using DM from previous geometry...
Extrapolating Density Matrix...

TDAP: Electric Field

TDAP: External EField    0.000000    0.000000    0.000000 Ry/Bohr/e

siesta: iscf   Eharris(eV)      E_KS(eV)   FreeEng(eV)   dDmax  Ef(eV)
siesta:    1     -468.2356     -468.2356     -468.2356  0.0000 -1.1119

siesta: E_KS(eV) =             -468.2356

siesta: Atomic forces (eV/Ang):
----------------------------------------
   Tot   -0.063512   -0.464476   -0.053189
----------------------------------------
   Max    0.455632
   Res    0.155102    sqrt( Sum f_i^2 / 3N )
----------------------------------------
   Max    0.455632    constrained

Stress-tensor-Voigt (kbar):        0.03        0.03        0.11        0.10        0.05       -0.01
(Free)E + p*V (eV/cell)     -468.2708
Target enthalpy (eV/cell)     -468.2356

siesta: Stress tensor (static) (eV/Ang**3):
         0.000054    0.000000    0.000010
         0.000002    0.000122   -0.000003
         0.000011   -0.000000    0.000083

siesta: Pressure (static):         -0.13865407  kBar

siesta: Stress tensor (total) (eV/Ang**3):
         0.000020    0.000060   -0.000007
         0.000062    0.000019    0.000029
        -0.000006    0.000031    0.000066

siesta: Pressure (total):         -0.05641482  kBar

TDAP : Electric dipole (a.u.)  =    0.317021    0.009067   -0.419248
TDAP : Electric dipole (Debye) =    0.805787    0.023046   -1.065624
TDAP : Energy  :  -24.22 -12.51  -8.10  -6.17   2.04   4.25  10.67  12.36
TDAP : Partition :    2.00   2.00   2.00   2.00   0.00   0.00   0.00   0.00

siesta: Temp_ion =     300.000 K

* Maximum dynamic memory allocated =     4 MB

siesta:                 ==============================
                            Begin MD step =   1499
                        ==============================

outcell: Unit cell vectors (Ang):
       10.000000    0.000000    0.000000
        0.000000   10.000000    0.000000
        0.000000    0.000000   10.000000

outcell: Cell vector modules (Ang)   :   10.000000   10.000000   10.000000
outcell: Cell angles (23,13,12) (deg):     90.0000     90.0000     90.0000
outcell: Cell volume (Ang**3)        :   1000.0000
New_DM. Step:  1499
Re-using DM from previous geometry...
Extrapolating Density Matrix...

TDAP: Electric Field

TDAP: External EField    0.000000    0.000000    0.000000 Ry/Bohr/e

siesta: iscf   Eharris(eV)      E_KS(eV)   FreeEng(eV)   dDmax  Ef(eV)
siesta:    1     -468.2356     -468.2356     -468.2356  0.0001 -1.1119
siesta:    2     -468.2356     -468.2356     -468.2356  0.0000 -1.1119

siesta: E_KS(eV) =             -468.2356

siesta: Atomic forces (eV/Ang):
----------------------------------------
   Tot   -0.063741   -0.464478   -0.053526
----------------------------------------
   Max    0.454262
   Res    0.154822    sqrt( Sum f_i^2 / 3N )
----------------------------------------
   Max    0.454262    constrained

Stress-tensor-Voigt (kbar):        0.03        0.03        0.11        0.10        0.05       -0.01
(Free)E + p*V (eV/cell)     -468.2708
Target enthalpy (eV/cell)     -468.2356

siesta: Stress tensor (static) (eV/Ang**3):
         0.000054    0.000000    0.000011
         0.000003    0.000122   -0.000004
         0.000010   -0.000000    0.000083

siesta: Pressure (static):         -0.13857146  kBar

siesta: Stress tensor (total) (eV/Ang**3):
         0.000020    0.000060   -0.000006
         0.000062    0.000019    0.000028
        -0.000007    0.000031    0.000066

siesta: Pressure (total):         -0.05633221  kBar

TDAP : Electric dipole (a.u.)  =    0.317083    0.009221   -0.419200
TDAP : Electric dipole (Debye) =    0.805946    0.023437   -1.065502
TDAP : Energy  :  -24.22 -12.51  -8.10  -6.17   2.04   4.25  10.67  12.36
TDAP : Partition :    2.00   2.00   2.00   2.00   0.00   0.00   0.00   0.00

siesta: Temp_ion =     300.000 K

* Maximum dynamic memory allocated =     4 MB

siesta:                 ==============================
                            Begin MD step =   1500
                        ==============================

outcell: Unit cell vectors (Ang):
       10.000000    0.000000    0.000000
        0.000000   10.000000    0.000000
        0.000000    0.000000   10.000000

outcell: Cell vector modules (Ang)   :   10.000000   10.000000   10.000000
outcell: Cell angles (23,13,12) (deg):     90.0000     90.0000     90.0000
outcell: Cell volume (Ang**3)        :   1000.0000
New_DM. Step:  1500
Re-using DM from previous geometry...
Extrapolating Density Matrix...

TDAP: Electric Field

TDAP: External EField    0.000000    0.000000    0.000000 Ry/Bohr/e

siesta: iscf   Eharris(eV)      E_KS(eV)   FreeEng(eV)   dDmax  Ef(eV)
siesta:    1     -468.2356     -468.2356     -468.2356  0.0000 -1.1119

siesta: E_KS(eV) =             -468.2356

siesta: Atomic forces (eV/Ang):
----------------------------------------
   Tot   -0.063923   -0.464442   -0.053884
----------------------------------------
   Max    0.453039
   Res    0.154587    sqrt( Sum f_i^2 / 3N )
----------------------------------------
   Max    0.453039    constrained

Stress-tensor-Voigt (kbar):        0.03        0.03        0.11        0.10        0.05       -0.01
(Free)E + p*V (eV/cell)     -468.2708
Target enthalpy (eV/cell)     -468.2356

siesta: Stress tensor (static) (eV/Ang**3):
         0.000054    0.000000    0.000012
         0.000003    0.000122   -0.000004
         0.000009   -0.000000    0.000083

siesta: Pressure (static):         -0.13864982  kBar

siesta: Stress tensor (total) (eV/Ang**3):
         0.000020    0.000060   -0.000005
         0.000062    0.000020    0.000027
        -0.000008    0.000031    0.000066

siesta: Pressure (total):         -0.05641058  kBar
Writing WFSX for COOP/COHP in siesta.TDWFSX

TDAP : Electric dipole (a.u.)  =    0.317038    0.009394   -0.419240
TDAP : Electric dipole (Debye) =    0.805832    0.023876   -1.065602
TDAP : Energy  :  -24.22 -12.51  -8.10  -6.17   2.04   4.25  10.67  12.36
TDAP : Partition :    2.00   2.00   2.00   2.00   0.00   0.00   0.00   0.00

siesta: Temp_ion =     300.000 K

* Maximum dynamic memory allocated =     4 MB

siesta: Program's energy decomposition (eV):
siesta: Ebs     =      -101.985696
siesta: Eions   =       815.854478
siesta: Ena     =       170.060777
siesta: Ekin    =       357.162613
siesta: Enl     =       -63.829340
siesta: DEna    =        -0.147845
siesta: DUscf   =         0.703301
siesta: DUext   =        -0.000000
siesta: Exc     =      -116.330620
siesta: eta*DQ  =         0.000000
siesta: Emadel  =         0.000000
siesta: Emeta   =         0.000000
siesta: Emolmec =         0.000000
siesta: Ekinion =         0.077553
siesta: Eharris =      -468.158029
siesta: Etot    =      -468.158040
siesta: FreeEng =      -468.158040

siesta: Final energy (eV):
siesta:  Band Struct. =    -101.985696
siesta:       Kinetic =     357.162613
siesta:       Hartree =     460.295382
siesta:    Ext. field =      -0.000000
siesta:   Exch.-corr. =    -116.330620
siesta:  Ion-electron =   -1228.798260
siesta:       Ion-ion =      59.435292
siesta:       Ekinion =       0.077553
siesta:         Total =    -468.158040

siesta: Atomic forces (eV/Ang):
siesta:      1    0.010286   -0.005749   -0.005610
siesta:      2    0.013474   -0.005654   -0.006936
siesta:      3   -0.087684   -0.453039   -0.041339
siesta: ----------------------------------------
siesta:    Tot   -0.063923   -0.464442   -0.053884

siesta: Stress tensor (static) (eV/Ang**3):
siesta:     0.000054    0.000000    0.000012
siesta:     0.000003    0.000122   -0.000004
siesta:     0.000009   -0.000000    0.000083

siesta: Cell volume =       1000.000000 Ang**3

siesta: Pressure (static):
siesta:                Solid            Molecule  Units
siesta:          -0.00000094         -0.00000100  Ry/Bohr**3
siesta:          -0.00008654         -0.00009204  eV/Ang**3
siesta:          -0.13864982         -0.14745849  kBar
(Free)E+ p_basis*V_orbitals  =        -467.690269
(Free)Eharris+ p_basis*V_orbitals  =        -467.690269

siesta: Electric dipole (a.u.)  =    0.317038    0.009394   -0.419240
siesta: Electric dipole (Debye) =    0.805832    0.023876   -1.065602

* Maximum dynamic memory allocated : Node    0 =     4 MB
* Maximum dynamic memory allocated : Node    1 =     4 MB
* Maximum dynamic memory allocated : Node    2 =     4 MB
* Maximum dynamic memory allocated : Node    3 =     4 MB
* Maximum dynamic memory allocated : Node    4 =     4 MB
* Maximum dynamic memory allocated : Node    5 =     4 MB
* Maximum dynamic memory allocated : Node    6 =     4 MB
* Maximum dynamic memory allocated : Node    7 =     4 MB
* Maximum dynamic memory allocated : Node    8 =     4 MB
* Maximum dynamic memory allocated : Node    9 =     4 MB

* Maximum memory occured during ranger                        

timer: CPU execution times:
timer:  Routine       Calls   Time/call    Tot.time        %
timer:  siesta            1    1897.220    1897.220   100.00
timer:  Setup             1       2.074       2.074     0.11
timer:  bands             1       0.002       0.002     0.00
timer:  writewave         1       0.006       0.006     0.00
timer:  KSV_init          1       0.001       0.001     0.00
timer:  IterMD         1500       1.263    1895.058    99.89
timer:  hsparse        1500       0.000       0.472     0.02
timer:  overlap        1500       0.001       1.456     0.08
timer:  IterSCF        1798       0.485     871.637    45.94
timer:  kinefsm        3000       0.001       1.673     0.09
timer:  nlefsm         3000       0.014      41.436     2.18
timer:  DHSCF          3298       0.448    1476.617    77.83
timer:  DHSCF1            1       0.205       0.205     0.01
timer:  DHSCF2            1       0.258       0.258     0.01
timer:  REORD         32982       0.001      19.583     1.03
timer:  POISON         3299       0.061     200.279    10.56
timer:  DHSCF3         3298       0.413    1361.832    71.78
timer:  rhoofd         3298       0.013      43.761     2.31
timer:  cellXC         3298       0.247     816.089    43.01
timer:  vmat           3298       0.030      98.463     5.19
timer:  MolMec         3000       0.000       0.097     0.01
timer:  diagon           23       0.067       1.540     0.08
timer:  r-eigvec         23       0.066       1.526     0.08
timer:  r-buildHS      1798       0.000       0.001     0.00
timer:  rdiag            23       0.066       1.525     0.08
timer:  rdiag1           23       0.006       0.142     0.01
timer:  rdiag2           23       0.023       0.539     0.03
timer:  rdiag3           23       0.034       0.788     0.04
timer:  rdiag4           23       0.001       0.030     0.00
timer:  r-buildD       1798       0.000       0.008     0.00
timer:  DHSCF4         1500       0.075     112.414     5.93
timer:  dfscf          1500       0.068     101.831     5.37
timer:  overfsm        1500       0.001       1.276     0.07
timer:  evolve         1775       0.049      86.395     4.55
timer:  r-evolgg       1775       0.000       0.000     0.00
timer:  zevolg.1       1775       0.011      19.386     1.02
timer:  zevolg.2       1775       0.001       1.508     0.08
timer:  zevolg.3       1775       0.000       0.032     0.00
timer:  zevolg.4       1775       0.012      20.688     1.09
timer:  zevolg.5       1775       0.001       1.296     0.07
timer:  zevolg.6       1775       0.000       0.069     0.00
timer:  optical           1       0.022       0.022     0.00
  

elaps: ELAPSED times:
elaps:  Routine       Calls   Time/call    Tot.time        %
elaps:  siesta            1     191.211     191.211   100.00
elaps:  Setup             1       0.208       0.208     0.11
elaps:  bands             1       0.001       0.001     0.00
elaps:  writewave         1       0.000       0.000     0.00
elaps:  KSV_init          1       0.000       0.000     0.00
elaps:  IterMD         1500       0.127     190.984    99.88
elaps:  hsparse        1500       0.000       0.051     0.03
elaps:  overlap        1500       0.000       0.151     0.08
elaps:  IterSCF        1798       0.049      88.290    46.17
elaps:  kinefsm        3000       0.000       0.175     0.09
elaps:  nlefsm         3000       0.001       4.184     2.19
elaps:  DHSCF          3298       0.043     141.389    73.94
elaps:  DHSCF1            1       0.022       0.022     0.01
elaps:  DHSCF2            1       0.025       0.025     0.01
elaps:  REORD         32982       0.000       2.116     1.11
elaps:  POISON         3299       0.006      20.149    10.54
elaps:  DHSCF3         3298       0.041     136.719    71.50
elaps:  rhoofd         3298       0.000       0.731     0.38
elaps:  cellXC         3298       0.025      81.755    42.76
elaps:  vmat           3298       0.003       9.832     5.14
elaps:  MolMec         3000       0.000       0.013     0.01
elaps:  diagon           23       0.007       0.155     0.08
elaps:  r-eigvec         23       0.007       0.153     0.08
elaps:  r-buildHS      1798       0.000       0.000     0.00
elaps:  rdiag            23       0.007       0.153     0.08
elaps:  rdiag1           23       0.001       0.013     0.01
elaps:  rdiag2           23       0.002       0.055     0.03
elaps:  rdiag3           23       0.003       0.077     0.04
elaps:  rdiag4           23       0.000       0.005     0.00
elaps:  r-buildD       1798       0.000       0.000     0.00
elaps:  DHSCF4         1500       0.003       4.435     2.32
elaps:  dfscf          1500       0.003       4.275     2.24
elaps:  overfsm        1500       0.000       0.144     0.08
elaps:  evolve         1775       0.005       9.088     4.75
elaps:  r-evolgg       1775       0.000       0.000     0.00
elaps:  zevolg.1       1775       0.001       1.959     1.02
elaps:  zevolg.2       1775       0.000       0.155     0.08
elaps:  zevolg.3       1775       0.000       0.003     0.00
elaps:  zevolg.4       1775       0.001       2.071     1.08
elaps:  zevolg.5       1775       0.000       0.136     0.07
elaps:  zevolg.6       1775       0.000       0.005     0.00
elaps:  optical           1       0.000       0.000     0.00
  
>> End of run:   2-DEC-2020  22:23:34
